
 Distributed Data Interface kickoff program.
 Initiating 16 compute processes on 1 nodes to run the following command:
 /bighome/k.komarov/projects/gms-mrsf-uhf/gamess.umrsf.x uhf_mrsf_thymine_631gd_bhhlyp_1 

          ******************************************************
          *         GAMESS VERSION = 14 FEB 2018 (R1)         *
          *             FROM IOWA STATE UNIVERSITY             *
          * M.W.SCHMIDT, K.K.BALDRIDGE, J.A.BOATZ, S.T.ELBERT, *
          *   M.S.GORDON, J.H.JENSEN, S.KOSEKI, N.MATSUNAGA,   *
          *          K.A.NGUYEN, S.J.SU, T.L.WINDUS,           *
          *       TOGETHER WITH M.DUPUIS, J.A.MONTGOMERY       *
          *         J.COMPUT.CHEM.  14, 1347-1363(1993)        *
          **************** 64 BIT INTEL VERSION ****************

  SINCE 1993, STUDENTS AND POSTDOCS WORKING AT IOWA STATE UNIVERSITY
  AND ALSO IN THEIR VARIOUS JOBS AFTER LEAVING ISU HAVE MADE IMPORTANT
  CONTRIBUTIONS TO THE CODE:
     IVANA ADAMOVIC, CHRISTINE AIKENS, YURI ALEXEEV, POOJA ARORA,
     ANDREY ASADCHEV, ROB BELL, PRADIPTA BANDYOPADHYAY, JONATHAN BENTZ,
     BRETT BODE, KURT BRORSEN, CALEB CARLIN, GALINA CHABAN, WEI CHEN,
     CHEOL HO CHOI, PAUL DAY, ALBERT DEFUSCO, NUWAN DESILVA, TIM DUDLEY,
     DMITRI FEDOROV, ALEX FINDLATER, GRAHAM FLETCHER, MARK FREITAG,
     KURT GLAESEMANN, ANASTASIA GUININA,
     DAN KEMP, GRANT MERRILL, NORIYUKI MINEZAWA, JONATHAN MULLIN,
     TAKESHI NAGATA, SEAN NEDD, HEATHER NETZLOFF, BOSILJKA NJEGIC, RYAN OLSON,
     MIKE PAK, BUU PHAM,
     SPENCER PRUITT, LUKE ROSKOP, JIM SHOEMAKER, LYUDMILA SLIPCHENKO,
     TONY SMITH, SAROM SOK LEANG, JIE SONG, TETSUYA TAKETSUGU, SIMON WEBB,
     PENG XU, SOOHAENG YOO, FEDERICO ZAHARIEV

  ADDITIONAL CODE HAS BEEN PROVIDED BY COLLABORATORS IN OTHER GROUPS:
     IOWA STATE UNIVERSITY:
          JOE IVANIC, AARON WEST, LAIMUTIS BYTAUTAS, KLAUS RUEDENBERG
     UNIVERSITY OF TOKYO: KIMIHIKO HIRAO, TAKAHITO NAKAJIMA,
          TAKAO TSUNEDA, MUNEAKI KAMIYA, SUSUMU YANAGISAWA,
          KIYOSHI YAGI, MAHITO CHIBA, SEIKEN TOKURA, NAOAKI KAWAKAMI
     UNIVERSITY OF AARHUS: FRANK JENSEN
     UNIVERSITY OF IOWA: VISVALDAS KAIRYS, HUI LI
     NATIONAL INST. OF STANDARDS AND TECHNOLOGY: WALT STEVENS, DAVID GARMER
     UNIVERSITY OF PISA: BENEDETTA MENNUCCI, JACOPO TOMASI
     UNIVERSITY OF MEMPHIS: HENRY KURTZ, PRAKASHAN KORAMBATH
     UNIVERSITY OF ALBERTA: TOBY ZENG, MARIUSZ KLOBUKOWSKI
     UNIVERSITY OF NEW ENGLAND: MARK SPACKMAN
     MIE UNIVERSITY: HIROAKI UMEDA
     NAT. INST. OF ADVANCED INDUSTRIAL SCIENCE AND TECHNOLOGY: KAZUO KITAURA
     MICHIGAN STATE UNIVERSITY:
          KAROL KOWALSKI, MARTA WLOCH, JEFFREY GOUR, JESSE LUTZ,
          WEI LI, PIOTR PIECUCH
     UNIVERSITY OF SILESIA: MONIKA MUSIAL, STANISLAW KUCHARSKI
     FACULTES UNIVERSITAIRES NOTRE-DAME DE LA PAIX:
          OLIVIER QUINET, BENOIT CHAMPAGNE
     UNIVERSITY OF CALIFORNIA - SANTA BARBARA: BERNARD KIRTMAN
     INSTITUTE FOR MOLECULAR SCIENCE:
          KAZUYA ISHIMURA, MICHIO KATOUDA, AND SHIGERU NAGASE
     UNIVERSITY OF NOTRE DAME: ANNA POMOGAEVA, DAN CHIPMAN
     KYUSHU UNIVERSITY:
          HARUYUKI NAKANO,
          FENG LONG GU, JACEK KORCHOWIEC, MARCIN MAKOWSKI, AND YURIKO AOKI,
          HIROTOSHI MORI AND EISAKU MIYOSHI
     PENNSYLVANIA STATE UNIVERSITY:
          TZVETELIN IORDANOV, CHET SWALINA, JONATHAN SKONE,
          SHARON HAMMES-SCHIFFER
     WASEDA UNIVERSITY:
          MASATO KOBAYASHI, TOMOKO AKAMA, TSUGUKI TOUMA,
          TAKESHI YOSHIKAWA, YASUHIRO IKABATA, JUNJI SEINO,
          YUYA NAKAJIMA, HIROMI NAKAI
     NANJING UNIVERSITY: SHUHUA LI
     UNIVERSITY OF NEBRASKA:
          PEIFENG SU, DEJUN SI, NANDUN THELLAMUREGE, YALI WANG, HUI LI
     UNIVERSITY OF ZURICH: ROBERTO PEVERATI, KIM BALDRIDGE
     N. COPERNICUS UNIVERSITY AND JACKSON STATE UNIVERSITY:
          MARIA BARYSZ
     UNIVERSITY OF COPENHAGEN: Jimmy Kromann, CASPER STEINMANN
     TOKYO INSTITUTE OF TECHNOLOGY: HIROYA NAKATA
     NAGOYA UNIVERSITY: YOSHIO NISHIMOTO, STEPHAN IRLE
     MOSCOW STATE UNIVERSITY: VLADIMIR MIRONOV


 PARALLEL VERSION RUNNING ON       16 PROCESSORS IN        1 NODES.

 EXECUTION OF GAMESS BEGUN Wed Apr 12 08:24:50 2023

            ECHO OF THE FIRST FEW INPUT CARDS -
 INPUT CARD> $contrl runtyp=energy $end                                                     
 INPUT CARD> $tddft iroot=1 $end                                                            
 INPUT CARD> $contrl scftyp=uhf mult=3 $end                                                 
 INPUT CARD> $scf couple=.t. alpha(1)=0.5,0.5,0.5 beta(1)=0.5,0.5,0.5 $end                  
 INPUT CARD> $basis gbasis=n31 ngauss=6 ndfunc=1 $end                                       
 INPUT CARD> $contrl dfttyp=bhhlyp $end                                                     
 INPUT CARD> $contrl tddft=spnflp $end                                                      
 INPUT CARD> $tddft nstate=10 iroot=1 tammd=.t. mult=1 mrsfs=.t. $end                       
 INPUT CARD> $contrl coord=unique icharg=0 maxit=200 $end                                   
 INPUT CARD> $scf dirscf=.t. diis=.t. soscf=.f. fdiff=.f. damp=.f. shift=.f. $end           
 INPUT CARD> $system timlim=999999100 mwords=500 kdiag=4 $end                               
 INPUT CARD> $data                                                                          
 INPUT CARD> geodesic pathway 1                                                             
 INPUT CARD> C1                                                                             
 INPUT CARD> C	 6.0 -0.577496969684 1.079803316077 0.001274902298                           
 INPUT CARD> C	 6.0 0.664685685546 0.330214226109 0.000195708495                            
 INPUT CARD> C	 6.0 0.597780712318 -1.023377234812 -0.001082980425                          
 INPUT CARD> C	 6.0 -1.826875521479 -1.066930020254 0.001779172767                          
 INPUT CARD> C	 6.0 1.945091938132 1.094030247490 -0.000090849291                           
 INPUT CARD> N	 7.0 -0.596875411822 -1.689019843228 -0.001723200476                         
 INPUT CARD> N	 7.0 -1.737452314165 0.299604541695 0.001260481531                           
 INPUT CARD> O	 8.0 -2.863730500583 -1.680140156840 -0.003615175237                         
 INPUT CARD> O	 8.0 -0.661628630649 2.287867429592 0.001996653034                           
 INPUT CARD> H	 1.0 -0.632110830372 -2.690038535604 0.001052350452                          
 INPUT CARD> H	 1.0 -2.609342861774 0.797469667909 0.002354217266                           
 INPUT CARD> H	 1.0 2.800788940440 0.425232860096 0.005986998229                            
 INPUT CARD> H	 1.0 2.008621331001 1.745436521146 0.868492934612                            
 INPUT CARD> H	 1.0 2.014069403108 1.736132742220 -0.875190649124                           
 INPUT CARD> H	 1.0 1.474475029982 -1.646285761595 -0.002690564130                          
 INPUT CARD> $end                                                                           
 INPUT CARD> $guess guess=moread $end                                                       
 INPUT CARD> $scf rstrct=.t. $end                                                           
 INPUT CARD> $guess guess=moread norb=  147 norder=1                                        
 INPUT CARD> jorder(1)=   1,   2,   3,   4,   5,   6,   8,   7,   9,  10,                   
 INPUT CARD>  11,  12,  13,  14,  15,  17,  16,  19,  18,  20,                              
 INPUT CARD>  22,  21,  33,  24,  23,  25,  26,  27,  28,  29,                              
 INPUT CARD>  30,  31,  32,  34,  35,  36,  37,  38,  40,  39,                              
 INPUT CARD>  41,  42,  44,  43,  45,  46,  47,  48,  49,  50,                              
 INPUT CARD>  51,  52,  53,  54,  55,  56,  57,  58,  59,  60,                              
 INPUT CARD>  61,  62,  63,  64,  65,  66,  67,  68,  69,  70,                              
 INPUT CARD>  72,  71,  73,  74,  75,  76,  77,  78,  80,  79,                              
 INPUT CARD>  81,  82,  83,  84,  85,  86,  87,  88,  89,  90,                              
 INPUT CARD>  91,  92,  93,  94,  95,  96,  97,  98,  99, 100,                              
 INPUT CARD> 101, 102, 103, 104, 105, 106, 107, 108, 109, 110,                              
 INPUT CARD> 111, 112, 113, 114, 115, 116, 117, 118, 119, 120,                              
 INPUT CARD> 121, 122, 123, 124, 125, 126, 127, 128, 129, 130,                              
 INPUT CARD> 131, 132, 133, 134, 135, 136, 137, 138, 139, 140,                              
 INPUT CARD> 141, 142, 143, 144, 145, 146, 147                                              
 INPUT CARD> $end                                                                           
 INPUT CARD> $VEC                                                                           
  500000000 WORDS OF MEMORY AVAILABLE

     BASIS OPTIONS
     -------------
     GBASIS=N31          IGAUSS=       6      POLAR=POPN31  
     NDFUNC=       1     NFFUNC=       0     DIFFSP=       F
     NPFUNC=       0      DIFFS=       F     BASNAM=        


     RUN TITLE
     ---------
  geodesic pathway 1                                                             

 THE POINT GROUP OF THE MOLECULE IS C1      
 THE ORDER OF THE PRINCIPAL AXIS IS     0

 ATOM      ATOMIC                      COORDINATES (BOHR)
           CHARGE         X                   Y                   Z
 C           6.0    -1.0913110314        2.0405323880        0.0024092160
 C           6.0     1.2560738136        0.6240144046        0.0003698354
 C           6.0     1.1296417470       -1.9339025559       -0.0020465363
 C           6.0    -3.4522941493       -2.0162053864        0.0033621490
 C           6.0     3.6756907840        2.0674173900       -0.0001716803
 N           7.0    -1.1279309772       -3.1917846915       -0.0032563767
 N           7.0    -3.2833087905        0.5661704885        0.0023819647
 O           8.0    -5.4116659488       -3.1750045174       -0.0068316906
 O           8.0    -1.2502968176        4.3234425382        0.0037731271
 H           1.0    -1.1945162633       -5.0834357287        0.0019886540
 H           1.0    -4.9309430168        1.5069991559        0.0044488255
 H           1.0     5.2927236469        0.8035735866        0.0113137861
 H           1.0     3.7957439287        3.2983967539        1.6412136687
 H           1.0     3.8060392921        3.2808151611       -1.6538705139
 H           1.0     2.7863537824       -3.1110289869       -0.0050844290

          INTERNUCLEAR DISTANCES (ANGS.)
          ------------------------------

                1 C          2 C          3 C          4 C          5 C     

   1 C       0.0000000    1.4508283 *  2.4092845 *  2.4838299 *  2.5226294 *
   2 C       1.4508283 *  0.0000000    1.3552445 *  2.8565524 *  1.4909243 *
   3 C       2.4092845 *  1.3552445 *  0.0000000    2.4250490 *  2.5097137 *
   4 C       2.4838299 *  2.8565524 *  2.4250490 *  0.0000000    4.3471245  
   5 C       2.5226294 *  1.4909243 *  2.5097137 *  4.3471245    0.0000000  
   6 N       2.7688926 *  2.3809339 *  1.3675832 *  1.3783716 *  3.7692132  
   7 N       1.3979294 *  2.4023333 *  2.6839522 *  1.3694574 *  3.7672598  
   8 O       3.5838772    4.0609432    3.5232661    1.2046261 *  5.5516490  
   9 O       1.2109903 *  2.3646393 *  3.5426632    3.5514034    2.8670967 *
  10 H       3.7702374    3.2868843    2.0713275 *  2.0154266 *  4.5783351  
  11 H       2.0513681 *  3.3072035    3.6879719    2.0219401 *  4.5640805  
  12 H       3.4411191    2.1382234 *  2.6366203 *  4.8622882    1.0860683 *
  13 H       2.8076935 *  2.1361080 *  3.2269123    4.8344218    1.0875679 *
  14 H       2.8133923 *  2.1362922 *  3.2225507    4.8351934    1.0875905 *
  15 H       3.4120619    2.1359586 *  1.0754583 *  3.3518038    2.7804350 *

                6 N          7 N          8 O          9 O         10 H     

   1 C       2.7688926 *  1.3979294 *  3.5838772    1.2109903 *  3.7702374  
   2 C       2.3809339 *  2.4023333 *  4.0609432    2.3646393 *  3.2868843  
   3 C       1.3675832 *  2.6839522 *  3.5232661    3.5426632    2.0713275 *
   4 C       1.3783716 *  1.3694574 *  1.2046261 *  3.5514034    2.0154266 *
   5 C       3.7692132    3.7672598    5.5516490    2.8670967 *  4.5783351  
   6 N       0.0000000    2.2924990 *  2.2668733 *  3.9774161    1.0016425 *
   7 N       2.2924990 *  0.0000000    2.2776996 *  2.2606606 *  3.1874356  
   8 O       2.2668733 *  2.2776996 *  0.0000000    4.5381018    2.4494985 *
   9 O       3.9774161    2.2606606 *  4.5381018    0.0000000    4.9779936  
  10 H       1.0016425 *  3.1874356    2.4494985 *  4.9779936    0.0000000  
  11 H       3.1988548    1.0040239 *  2.4906423 *  2.4525245 *  4.0090101  
  12 H       4.0017805    4.5399822    6.0431340    3.9316357    4.6357029  
  13 H       4.3978836    4.1079910    6.0195482    2.8592450 *  5.2344397  
  14 H       4.3945021    4.1116536    6.0185959    2.8693603 *  5.2307804  
  15 H       2.0717914 *  3.7553937    4.3383377    4.4766642    2.3509866 *

               11 H         12 H         13 H         14 H         15 H     

   1 C       2.0513681 *  3.4411191    2.8076935 *  2.8133923 *  3.4120619  
   2 C       3.3072035    2.1382234 *  2.1361080 *  2.1362922 *  2.1359586 *
   3 C       3.6879719    2.6366203 *  3.2269123    3.2225507    1.0754583 *
   4 C       2.0219401 *  4.8622882    4.8344218    4.8351934    3.3518038  
   5 C       4.5640805    1.0860683 *  1.0875679 *  1.0875905 *  2.7804350 *
   6 N       3.1988548    4.0017805    4.3978836    4.3945021    2.0717914 *
   7 N       1.0040239 *  4.5399822    4.1079910    4.1116536    3.7553937  
   8 O       2.4906423 *  6.0431340    6.0195482    6.0185959    4.3383377  
   9 O       2.4525245 *  3.9316357    2.8592450 *  2.8693603 *  4.4766642  
  10 H       4.0090101    4.6357029    5.2344397    5.2307804    2.3509866 *
  11 H       0.0000000    5.4229235    4.7931650    4.7986576    4.7591527  
  12 H       5.4229235    0.0000000    1.7647617 *  1.7646133 *  2.4597507 *
  13 H       4.7931650    1.7647617 *  0.0000000    1.7437169 *  3.5423231  
  14 H       4.7986576    1.7646133 *  1.7437169 *  0.0000000    3.5345683  
  15 H       4.7591527    2.4597507 *  3.5423231    3.5345683    0.0000000  

  * ... LESS THAN  3.000


     ATOMIC BASIS SET
     ----------------
 THE CONTRACTED PRIMITIVE FUNCTIONS HAVE BEEN UNNORMALIZED
 THE CONTRACTED BASIS FUNCTIONS ARE NOW NORMALIZED TO UNITY

  SHELL TYPE  PRIMITIVE        EXPONENT          CONTRACTION COEFFICIENT(S)

 C         

      1   S       1          3047.5248800    0.001834737132
      1   S       2           457.3695180    0.014037322813
      1   S       3           103.9486850    0.068842622264
      1   S       4            29.2101553    0.232184443216
      1   S       5             9.2866630    0.467941348435
      1   S       6             3.1639270    0.362311985337

      2   L       7             7.8682723   -0.119332419775    0.068999066591
      2   L       8             1.8812885   -0.160854151696    0.316423960957
      2   L       9             0.5442493    1.143456437840    0.744308290898

      3   L      10             0.1687145    1.000000000000    1.000000000000

      4   D      11             0.8000000    1.000000000000

 C         

      5   S      12          3047.5248800    0.001834737132
      5   S      13           457.3695180    0.014037322813
      5   S      14           103.9486850    0.068842622264
      5   S      15            29.2101553    0.232184443216
      5   S      16             9.2866630    0.467941348435
      5   S      17             3.1639270    0.362311985337

      6   L      18             7.8682723   -0.119332419775    0.068999066591
      6   L      19             1.8812885   -0.160854151696    0.316423960957
      6   L      20             0.5442493    1.143456437840    0.744308290898

      7   L      21             0.1687145    1.000000000000    1.000000000000

      8   D      22             0.8000000    1.000000000000

 C         

      9   S      23          3047.5248800    0.001834737132
      9   S      24           457.3695180    0.014037322813
      9   S      25           103.9486850    0.068842622264
      9   S      26            29.2101553    0.232184443216
      9   S      27             9.2866630    0.467941348435
      9   S      28             3.1639270    0.362311985337

     10   L      29             7.8682723   -0.119332419775    0.068999066591
     10   L      30             1.8812885   -0.160854151696    0.316423960957
     10   L      31             0.5442493    1.143456437840    0.744308290898

     11   L      32             0.1687145    1.000000000000    1.000000000000

     12   D      33             0.8000000    1.000000000000

 C         

     13   S      34          3047.5248800    0.001834737132
     13   S      35           457.3695180    0.014037322813
     13   S      36           103.9486850    0.068842622264
     13   S      37            29.2101553    0.232184443216
     13   S      38             9.2866630    0.467941348435
     13   S      39             3.1639270    0.362311985337

     14   L      40             7.8682723   -0.119332419775    0.068999066591
     14   L      41             1.8812885   -0.160854151696    0.316423960957
     14   L      42             0.5442493    1.143456437840    0.744308290898

     15   L      43             0.1687145    1.000000000000    1.000000000000

     16   D      44             0.8000000    1.000000000000

 C         

     17   S      45          3047.5248800    0.001834737132
     17   S      46           457.3695180    0.014037322813
     17   S      47           103.9486850    0.068842622264
     17   S      48            29.2101553    0.232184443216
     17   S      49             9.2866630    0.467941348435
     17   S      50             3.1639270    0.362311985337

     18   L      51             7.8682723   -0.119332419775    0.068999066591
     18   L      52             1.8812885   -0.160854151696    0.316423960957
     18   L      53             0.5442493    1.143456437840    0.744308290898

     19   L      54             0.1687145    1.000000000000    1.000000000000

     20   D      55             0.8000000    1.000000000000

 N         

     21   S      56          4173.5114600    0.001834772160
     21   S      57           627.4579110    0.013994627002
     21   S      58           142.9020930    0.068586551812
     21   S      59            40.2343293    0.232240873040
     21   S      60            12.8202129    0.469069948082
     21   S      61             4.3904370    0.360455199063

     22   L      62            11.6263619   -0.114961181702    0.067579743878
     22   L      63             2.7162798   -0.169117478561    0.323907295893
     22   L      64             0.7722184    1.145851947027    0.740895139755

     23   L      65             0.2120315    1.000000000000    1.000000000000

     24   D      66             0.8000000    1.000000000000

 N         

     25   S      67          4173.5114600    0.001834772160
     25   S      68           627.4579110    0.013994627002
     25   S      69           142.9020930    0.068586551812
     25   S      70            40.2343293    0.232240873040
     25   S      71            12.8202129    0.469069948082
     25   S      72             4.3904370    0.360455199063

     26   L      73            11.6263619   -0.114961181702    0.067579743878
     26   L      74             2.7162798   -0.169117478561    0.323907295893
     26   L      75             0.7722184    1.145851947027    0.740895139755

     27   L      76             0.2120315    1.000000000000    1.000000000000

     28   D      77             0.8000000    1.000000000000

 O         

     29   S      78          5484.6716600    0.001831074430
     29   S      79           825.2349460    0.013950172200
     29   S      80           188.0469580    0.068445078098
     29   S      81            52.9645000    0.232714335992
     29   S      82            16.8975704    0.470192897984
     29   S      83             5.7996353    0.358520852987

     30   L      84            15.5396162   -0.110777549525    0.070874268231
     30   L      85             3.5999336   -0.148026262701    0.339752839147
     30   L      86             1.0137618    1.130767015354    0.727158577316

     31   L      87             0.2700058    1.000000000000    1.000000000000

     32   D      88             0.8000000    1.000000000000

 O         

     33   S      89          5484.6716600    0.001831074430
     33   S      90           825.2349460    0.013950172200
     33   S      91           188.0469580    0.068445078098
     33   S      92            52.9645000    0.232714335992
     33   S      93            16.8975704    0.470192897984
     33   S      94             5.7996353    0.358520852987

     34   L      95            15.5396162   -0.110777549525    0.070874268231
     34   L      96             3.5999336   -0.148026262701    0.339752839147
     34   L      97             1.0137618    1.130767015354    0.727158577316

     35   L      98             0.2700058    1.000000000000    1.000000000000

     36   D      99             0.8000000    1.000000000000

 H         

     37   S     100            18.7311370    0.033494604338
     37   S     101             2.8253944    0.234726953484
     37   S     102             0.6401217    0.813757326146

     38   S     103             0.1612778    1.000000000000

 H         

     39   S     104            18.7311370    0.033494604338
     39   S     105             2.8253944    0.234726953484
     39   S     106             0.6401217    0.813757326146

     40   S     107             0.1612778    1.000000000000

 H         

     41   S     108            18.7311370    0.033494604338
     41   S     109             2.8253944    0.234726953484
     41   S     110             0.6401217    0.813757326146

     42   S     111             0.1612778    1.000000000000

 H         

     43   S     112            18.7311370    0.033494604338
     43   S     113             2.8253944    0.234726953484
     43   S     114             0.6401217    0.813757326146

     44   S     115             0.1612778    1.000000000000

 H         

     45   S     116            18.7311370    0.033494604338
     45   S     117             2.8253944    0.234726953484
     45   S     118             0.6401217    0.813757326146

     46   S     119             0.1612778    1.000000000000

 H         

     47   S     120            18.7311370    0.033494604338
     47   S     121             2.8253944    0.234726953484
     47   S     122             0.6401217    0.813757326146

     48   S     123             0.1612778    1.000000000000

 TOTAL NUMBER OF BASIS SET SHELLS             =   48
 NUMBER OF CARTESIAN GAUSSIAN BASIS FUNCTIONS =  147
 NUMBER OF ELECTRONS                          =   66
 CHARGE OF MOLECULE                           =    0
 SPIN MULTIPLICITY                            =    3
 NUMBER OF OCCUPIED ORBITALS (ALPHA)          =   34
 NUMBER OF OCCUPIED ORBITALS (BETA )          =   32
 TOTAL NUMBER OF ATOMS                        =   15
 THE NUCLEAR REPULSION ENERGY IS      441.8550836413

     LEBEDEV GRID-BASED DFT OPTIONS
     ------------------------------
     DFTTYP=BHHLYP  
     NRAD  =      96     NLEB  =     302
     NRAD0 =      24     NLEB0 =     110
     SWOFF =    5.00E-03 (PURE SCF -> DFT)
     SWITCH=    3.00E-04 (COARSE -> TIGHT GRID)
     THRESH=    0.00E+00 GTHRE=    1.00E+00

 GRIMME'S EMPIRICAL DISPERSION CORRECTION= F

     $CONTRL OPTIONS
     ---------------
 SCFTYP=UHF          RUNTYP=ENERGY       EXETYP=RUN     
 MPLEVL=       0     CITYP =NONE         CCTYP =NONE         VBTYP =NONE    
 DFTTYP=BHHLYP       TDDFT =SPNFLP  
 MULT  =       3     ICHARG=       0     NZVAR =       0     COORD =UNIQUE  
 PP    =NONE         RELWFN=NONE         LOCAL =NONE         NUMGRD=       F
 ISPHER=      -1     NOSYM =       0     MAXIT =     200     UNITS =ANGS    
 PLTORB=       F     MOLPLT=       F     AIMPAC=       F     FRIEND=        
 NPRINT=       7     IREST =       0     GEOM  =INPUT   
 NORMF =       0     NORMP =       0     ITOL  =      20     ICUT  =       9
 INTTYP=BEST         GRDTYP=BEST         QMTTOL= 1.0E-06

     $SYSTEM OPTIONS
     ---------------
  REPLICATED MEMORY=   500000000 WORDS (ON EVERY NODE).
 DISTRIBUTED MEMDDI=           0 MILLION WORDS IN AGGREGATE,
 MEMDDI DISTRIBUTED OVER  16 PROCESSORS IS           0 WORDS/PROCESSOR.
 TOTAL MEMORY REQUESTED ON EACH PROCESSOR=   500000000 WORDS.
 TIMLIM=   999999100.00 MINUTES, OR  694443.8 DAYS.
 PARALL= T  BALTYP=  DLB     KDIAG=    4  COREFL= F
 MXSEQ2=     300 MXSEQ3=     150  mem10=         0

          ----------------
          PROPERTIES INPUT
          ----------------

     MOMENTS            FIELD           POTENTIAL          DENSITY
 IEMOM =       1   IEFLD =       0   IEPOT =       0   IEDEN =       0
 WHERE =COMASS     WHERE =NUCLEI     WHERE =NUCLEI     WHERE =NUCLEI  
 OUTPUT=BOTH       OUTPUT=BOTH       OUTPUT=BOTH       OUTPUT=BOTH    
 IEMINT=       0   IEFINT=       0                     IEDINT=       0
                                                       MORB  =       0
          EXTRAPOLATION IN EFFECT
          RESTRICTION OF ORBITAL MIXING IN EFFECT
          DIIS IN EFFECT
          DIIS or SOSCF will be reset if energy rises
 ORBITAL PRINTING OPTION: NPREO=     1   147     2     1

     -------------------------------
     INTEGRAL TRANSFORMATION OPTIONS
     -------------------------------
     NWORD  =            0
     CUTOFF = 1.0E-09     MPTRAN =       0
     DIRTRF =       T     AOINTS =DUP     

          ----------------------
          INTEGRAL INPUT OPTIONS
          ----------------------
 NOPK  =       1 NORDER=       0 SCHWRZ=       T
  -- ERROR --
 MRSF-TDDFT NEED SCFTYP=ROHF AND TDDFT=SPNFLP IN $CONTRL

          ----------------------
          TDDFT INPUT PARAMETERS
          ----------------------
 NSTATE=      10  IROOT=       1   MULT=       1
 MAXVEC=      50 NTRIAL=       5 CNVTOL=  1.00E-07
 TDPRP =       F  TAMMD=       T    TPA=       F
 ALPHA =       F   BETA=       F  PFREQ=    0.00    0.00
   NRAD=      48   NLEB=     110

     ------------------------------------------
     THE POINT GROUP IS C1 , NAXIS= 0, ORDER= 1
     ------------------------------------------

     DIMENSIONS OF THE SYMMETRY SUBSPACES ARE
 A   =  147

 ..... DONE SETTING UP THE RUN .....
 CPU     0: STEP CPU TIME=     0.17 TOTAL CPU TIME=          0.2 (      0.0 MIN)
 TOTAL WALL CLOCK TIME=          0.3 SECONDS, CPU UTILIZATION IS    62.07%

          ********************
          1 ELECTRON INTEGRALS
          ********************
 ...... END OF ONE-ELECTRON INTEGRALS ......
 CPU     0: STEP CPU TIME=     0.01 TOTAL CPU TIME=          0.2 (      0.0 MIN)
 TOTAL WALL CLOCK TIME=          0.3 SECONDS, CPU UTILIZATION IS    63.33%

          -------------
          GUESS OPTIONS
          -------------
          GUESS =MOREAD            NORB  =     147          NORDER=       1
          MIX   =       F          PRTMO =       F          PUNMO =       F
          TOLZ  = 1.0E-08          TOLE  = 1.0E-05
          SYMDEN=       F          PURIFY=       F

 INITIAL GUESS ORBITALS GENERATED BY MOREAD   ROUTINE.

 SYMMETRIES FOR INITIAL GUESS ORBITALS FOLLOW.  ALPHA SET(S).
    34 ORBITALS ARE OCCUPIED (    9 CORE ORBITALS).
    10=A       11=A       12=A       13=A       14=A       15=A       16=A   
    17=A       18=A       19=A       20=A       21=A       22=A       23=A   
    24=A       25=A       26=A       27=A       28=A       29=A       30=A   
    31=A       32=A       33=A       34=A       35=A       36=A       37=A   
    38=A       39=A       40=A       41=A       42=A       43=A       44=A   

 SYMMETRIES FOR INITIAL GUESS ORBITALS FOLLOW.   BETA SET(S).
    32 ORBITALS ARE OCCUPIED (    9 CORE ORBITALS).
    10=A       11=A       12=A       13=A       14=A       15=A       16=A   
    17=A       18=A       19=A       20=A       21=A       22=A       23=A   
    24=A       25=A       26=A       27=A       28=A       29=A       30=A   
    31=A       32=A       33=A       34=A       35=A       36=A       37=A   
    38=A       39=A       40=A       41=A       42=A   
 ...... END OF INITIAL ORBITAL SELECTION ......
 CPU     0: STEP CPU TIME=     0.03 TOTAL CPU TIME=          0.2 (      0.0 MIN)
 TOTAL WALL CLOCK TIME=          0.3 SECONDS, CPU UTILIZATION IS    62.86%

                    ----------------------
                    AO INTEGRAL TECHNOLOGY
                    ----------------------
     S,P,L SHELL ROTATED AXIS INTEGRALS, REPROGRAMMED BY
        KAZUYA ISHIMURA (IMS) AND JOSE SIERRA (SYNSTAR).
     S,P,D,L SHELL ROTATED AXIS INTEGRALS PROGRAMMED BY
        KAZUYA ISHIMURA (INSTITUTE FOR MOLECULAR SCIENCE).
     S,P,D,F,G SHELL TO TOTAL QUARTET ANGULAR MOMENTUM SUM 5,
        ERIC PROGRAM BY GRAHAM FLETCHER (ELORET AND NASA ADVANCED
        SUPERCOMPUTING DIVISION, AMES RESEARCH CENTER).
     S,P,D,F,G,L SHELL GENERAL RYS QUADRATURE PROGRAMMED BY
        MICHEL DUPUIS (PACIFIC NORTHWEST NATIONAL LABORATORY).

          --------------------
          2 ELECTRON INTEGRALS
          --------------------

 DIRECT SCF METHOD SKIPS INTEGRAL STORAGE ON DISK.
 DIRECT TRANSFORMATION SKIPS AO INTEGRAL STORAGE ON DISK.
  ...... END OF TWO-ELECTRON INTEGRALS .....
 CPU     0: STEP CPU TIME=     0.01 TOTAL CPU TIME=          0.2 (      0.0 MIN)
 TOTAL WALL CLOCK TIME=          0.4 SECONDS, CPU UTILIZATION IS    63.89%

          ---------------------------
             U-BHHLYP SCF CALCULATION
          ---------------------------

     NUCLEAR ENERGY =       441.8550836413
     MAXIT =200     NPUNCH=  2     MULT=  3
     EXTRAP=T  DAMP=F  SHIFT=F  RSTRCT=T  DIIS=T  SOSCF=F
         DENSITY MATRIX CONVERGENCE THRESHOLD=  2.00E-06
     COARSE -> FINE DFT GRID SWITCH THRESHOLD=  3.00E-04 (SWITCH IN $DFT)
                   HF -> DFT SWITCH THRESHOLD=  0.00E+00 (SWOFF IN $DFT)
     MEMORY REQUIRED FOR UHF/ROHF ITERS=    807691 WORDS.

 DIRECT SCF CALCULATION, SCHWRZ=T   FDIFF=F
 SCHWARZ INEQUALITY OVERHEAD:     10648 INTEGRALS, T=        0.00

 DFT CODE IS SWITCHING FROM THE FINE GRID NRAD= 96,  NLEB=  302
                      TO THE COARSE GRID NRAD0= 24, NLEB0=  110

     EXCHANGE FUNCTIONAL   =B88&HFX   
     CORRELATION FUNCTIONAL=LYP88     
     DFT THRESHOLD         =.920E-08
     GRID CHANGE THRESHOLD =.300E-03
 FOR AN EULER-MACLAURIN QUADRATURE USING  96 RADIAL POINTS:
 SMALLEST GAUSSIAN PRIMITIVE EXPONENT=        0.1612777588 OF TYPE -S-
 ON ATOM NUMBER  10 HAS RADIAL NORMALIZATION=  1.000000
  LARGEST GAUSSIAN PRIMITIVE EXPONENT=     5484.6716600000 OF TYPE -S-
 ON ATOM NUMBER   8 HAS RADIAL NORMALIZATION=  1.000000

                                                                                NONZERO     BLOCKS
 ITER EX      TOTAL ENERGY        E CHANGE  DENSITY CHANGE    DIIS ERROR      INTEGRALS    SKIPPED
          * * *   INITIATING DIIS PROCEDURE   * * *
   1  0     -453.6014534894  -453.6014534894   9.831265559   0.107202392       40325984     226421
   2  1     -452.3577111503     1.2437423391   9.845605438   0.175527484       40409257     214859
   3  2     -453.7283069641    -1.3705958138   0.070931655   0.035847349       40325973     226732
   4  3     -453.7460063440    -0.0176993799   0.045668427   0.018663567       40322494     226936
   5  4     -453.7514674340    -0.0054610901   0.041580662   0.010108315       40320597     227150
   6  5     -453.7535627299    -0.0020952958   0.020621893   0.004696960       40319108     227249
   7  6     -453.7542344049    -0.0006716750   0.009491351   0.002352401       40318406     227284
   8  7     -453.7543938598    -0.0001594549   0.004589583   0.001000725       40318217     227293
   9  8     -453.7544295978    -0.0000357380   0.002164109   0.000677674       40318065     227296
  10  9     -453.7544403027    -0.0000107049   0.001209409   0.000251887       40318047     227300
  11 10     -453.7544423919    -0.0000020892   0.000510539   0.000119416       40318045     227300
  12 11     -453.7544428756    -0.0000004837   0.000322333   0.000081773       40317926     227299
  13 12     -453.7544430465    -0.0000001710   0.000193313   0.000043534       40317935     227297
 DFT CODE IS SWITCHING BACK TO THE FINE GRID
          * * *   INITIATING DIIS PROCEDURE   * * *
  14 13     -453.7527024571     0.0017405894   0.004981907   0.000998078       40317935     227297
  15 14     -453.7527129109    -0.0000104537   0.000723704   0.000355553       40317845     227306
  16 15     -453.7527130477    -0.0000001368   0.000331812   0.000275569       40317863     227309
  17 16     -453.7527137446    -0.0000006969   0.000114956   0.000061832       40317849     227306
  18 17     -453.7527137660    -0.0000000215   0.000054424   0.000032790       40317816     227310
  19 18     -453.7527137807    -0.0000000147   0.000049451   0.000014212       40317824     227308
  20 19     -453.7527137852    -0.0000000045   0.000056671   0.000010318       40317824     227308
  21 20     -453.7527137883    -0.0000000031   0.000064196   0.000006068       40317823     227309
  22 21     -453.7527137899    -0.0000000016   0.000012354   0.000001673       40317823     227309
  23 22     -453.7527137900    -0.0000000001   0.000004843   0.000000763       40317823     227309
  24 23     -453.7527137901    -0.0000000000   0.000002143   0.000000423       40317823     227309
  25 24     -453.7527137901    -0.0000000000   0.000001954   0.000000253       40317823     227309

          -----------------
          DENSITY CONVERGED
          -----------------

          --------------------------
          Beta-Alpha orbital overlap
          --------------------------

   A <- B    A, eV     B, eV  Max Overlap
   1    1  -535.507  -535.267  1.000
   2    2  -535.621  -535.559  1.000
   3    3  -404.116  -404.090  1.000
   4    4  -405.155  -404.993  1.000
   5    5  -292.619  -292.638  1.000
   6    6  -291.224  -291.245  1.000
   7    7  -289.374  -289.011  1.000
   8    8  -289.643  -289.324  1.000
   9    9  -288.623  -288.648  1.000
  10   10   -32.502   -32.087  0.996
  11   11   -33.396   -33.229  0.997
  12   12   -30.412   -29.985  0.995
  13   13   -28.620   -28.396  0.996
  14   14   -26.082   -25.127  0.991
  15   15   -22.601   -22.207  0.982
  16   17   -21.241   -20.404  0.954   rearranged
  17   16   -20.599   -20.851  0.959   rearranged
  18   18   -17.734   -17.507  0.994
  19   19   -17.974   -17.678  0.995
  20   20   -15.084   -14.831  0.990
  21   21   -15.658   -14.784  0.948
  22   22   -16.118   -15.977  0.995
  23   23    -9.328    -9.082  0.996
  24   24   -14.135   -13.424  0.933
  25   25   -14.318   -14.173  0.992
  26   26   -13.852   -13.662  0.996
  27   27   -13.127   -12.142  0.922
  28   28   -13.238   -13.015  0.992
  29   29   -12.701   -12.581  0.991
  30   30   -12.194   -10.474  0.894   WARNING
  31   31    -9.791    -8.767  0.900   WARNING
  32   32   -10.146   -10.029  0.996
  33   33    -9.223    -3.137  0.859   WARNING
  34   34    -4.397     1.781  0.954
  35   35     1.581     2.426  0.973
  36   36     2.939     3.023  1.000
  37   38     4.322     4.092  0.997   rearranged
  38   37     4.016     4.359  0.996   rearranged
  39   39     4.303     5.308  0.871   WARNING
  40   40     4.972     5.070  0.992
  41   41     5.685     5.855  0.987
  42   42     6.223     7.011  0.891   WARNING
  43   43     8.017     8.083  0.974
  44   44     7.203     7.581  0.966
  45   45     7.497     7.788  0.947
  46   46     9.022     9.093  0.998
  47   47     9.886    10.068  0.993
  48   48    10.666    10.731  0.998
  49   49    11.358    11.449  0.993
  50   50    11.626    11.984  0.985
  51   51    14.322    14.523  0.981
  52   52    14.474    15.260  0.959
  53   53    15.364    15.807  0.978
  54   54    16.257    16.487  0.969
  55   55    16.408    16.709  0.991
  56   56    17.214    17.332  0.994
  57   57    17.736    17.776  0.999
  58   58    17.892    18.350  0.870   WARNING
  59   59    18.878    19.077  0.994
  60   60    18.744    19.592  0.862   WARNING
  61   61    19.757    19.907  0.984
  62   62    20.576    20.746  0.987
  63   63    21.567    21.699  0.998
  64   64    21.127    22.067  0.971
  65   65    22.246    22.448  0.996
  66   66    22.310    22.920  0.988
  67   67    23.402    23.513  0.997
  68   68    24.295    24.398  0.998
  69   69    25.131    25.226  0.978
  70   70    24.896    25.067  0.976
  71   71    25.495    25.756  0.964
  72   72    25.453    25.644  0.990
  73   73    25.966    26.289  0.965
  74   74    26.889    26.940  0.977
  75   75    26.950    26.996  0.977
  76   76    27.924    28.056  0.999
  77   77    28.419    28.551  0.998
  78   78    30.849    31.626  0.950
  79   79    30.157    30.402  0.930
  80   80    30.333    30.423  0.929
  81   81    30.438    30.738  0.950
  82   82    31.967    32.071  0.997
  83   83    32.501    32.705  0.991
  84   84    33.164    33.277  0.995
  85   85    34.456    35.127  0.994
  86   86    35.349    35.460  0.998
  87   87    36.422    36.594  0.999
  88   88    38.563    38.667  0.986
  89   89    38.330    38.923  0.953
  90   91    40.400    40.291  0.939   rearranged
  91   90    39.825    40.842  0.937   rearranged
  92   92    40.879    41.008  0.995
  93   93    40.936    41.770  0.925
  94   94    42.199    42.298  0.984
  95   95    41.983    42.461  0.934
  96   96    44.701    44.842  0.959
  97   97    44.932    45.081  0.960
  98   98    46.411    46.674  0.998
  99   99    51.042    51.625  0.877   WARNING
 100  100    50.380    50.477  0.999
 101  101    51.115    51.212  0.998
 102  102    52.012    52.180  0.995
 103  103    51.401    51.569  0.878   WARNING
 104  104    52.515    52.640  0.999
 105  105    52.807    53.015  0.993
 106  106    53.212    53.670  0.998
 107  107    54.217    54.621  0.860   WARNING
 108  108    54.728    55.221  0.863   WARNING
 109  109    56.725    56.960  0.991
 110  110    56.496    56.941  0.977
 111  112    57.576    57.890  0.866   rearranged, WARNING
 112  111    57.539    57.919  0.865   rearranged, WARNING
 113  113    59.591    59.826  0.996
 114  114    61.030    61.327  0.996
 115  115    61.653    62.158  0.993
 116  116    62.412    62.645  0.994
 117  117    63.688    63.756  0.998
 118  118    65.046    65.645  0.991
 119  119    66.052    66.195  0.922
 120  120    66.131    66.650  0.871   WARNING
 121  121    66.432    66.746  0.936
 122  122    66.687    67.399  0.906
 123  123    68.365    68.426  1.000
 124  124    69.143    69.255  0.999
 125  125    72.901    73.259  0.996
 126  126    74.231    74.475  0.995
 127  127    75.742    75.858  0.992
 128  128    75.568    76.132  0.995
 129  129    75.332    75.988  0.988
 130  130    76.315    76.566  0.996
 131  131    79.537    79.794  0.998
 132  132    80.462    80.599  1.000
 133  133    81.530    81.634  1.000
 134  134    85.207    85.337  0.998
 135  135    84.367    84.450  0.998
 136  136    86.068    86.124  1.000
 137  137    92.104    92.156  1.000
 138  138    97.141    97.237  1.000
 139  139   110.814   111.021  0.999
 140  140   112.127   112.300  0.999
 141  141   113.195   113.325  0.998
 142  142   116.597   116.847  0.996
 143  143   117.719   117.919  0.996
 144  144   120.735   120.874  0.998
 145  145   125.198   125.514  0.999
 146  146   129.356   129.514  0.999
 147  147   131.633   131.763  0.999
 
 --------------------------------------
 Beta orbitals rearrange recommendation
 --------------------------------------
 $scf rstrct=.t. $end
 $guess guess=moread norb=  147 norder=1
 jorder(1)=   1,   2,   3,   4,   5,   6,   7,   8,   9,  10,
  11,  12,  13,  14,  15,  17,  16,  18,  19,  20,
  21,  22,  23,  24,  25,  26,  27,  28,  29,  30,
  31,  32,  33,  34,  35,  36,  38,  37,  39,  40,
  41,  42,  43,  44,  45,  46,  47,  48,  49,  50,
  51,  52,  53,  54,  55,  56,  57,  58,  59,  60,
  61,  62,  63,  64,  65,  66,  67,  68,  69,  70,
  71,  72,  73,  74,  75,  76,  77,  78,  79,  80,
  81,  82,  83,  84,  85,  86,  87,  88,  89,  91,
  90,  92,  93,  94,  95,  96,  97,  98,  99, 100,
 101, 102, 103, 104, 105, 106, 107, 108, 109, 110,
 112, 111, 113, 114, 115, 116, 117, 118, 119, 120,
 121, 122, 123, 124, 125, 126, 127, 128, 129, 130,
 131, 132, 133, 134, 135, 136, 137, 138, 139, 140,
 141, 142, 143, 144, 145, 146, 147
 $end

     TIME TO FORM FOCK OPERATORS=       8.2 SECONDS (       0.3 SEC/ITER)
     FOCK TIME ON FIRST ITERATION=       0.2, LAST ITERATION=       0.5
     TIME TO SOLVE SCF EQUATIONS=       0.9 SECONDS (       0.0 SEC/ITER)

 FINAL U-BHHLYP ENERGY IS     -453.7527137901 AFTER  25 ITERATIONS
 DFT EXCHANGE + CORRELATION ENERGY =       -31.3477975430
 TOTAL ELECTRON NUMBER             =        66.0001759138

          --------------------
          SPIN SZ   =    1.000
          S-SQUARED =    2.021
          --------------------

  ----- ALPHA SET ----- 

          ------------
          EIGENVECTORS
          ------------

                      1          2          3          4          5
                  -19.6795   -19.6837   -14.8510   -14.8892   -10.7535
                     A          A          A          A          A   
    1  C  1  S   -0.000032   0.000031   0.000010   0.000001  -0.000320
    2  C  1  S    0.000370   0.000102   0.000117  -0.000002  -0.000684
    3  C  1  X   -0.000009  -0.000070  -0.000248  -0.000009   0.000083
    4  C  1  Y   -0.000041  -0.000049  -0.000164  -0.000016   0.000113
    5  C  1  Z   -0.000000   0.000000   0.000000   0.000000  -0.000001
    6  C  1  S   -0.001617   0.000139   0.000618   0.000680   0.002425
    7  C  1  X    0.000334  -0.000200  -0.000520   0.000094   0.001791
    8  C  1  Y   -0.004176   0.000440  -0.001295  -0.000380  -0.005341
    9  C  1  Z   -0.000002  -0.000000   0.000000  -0.000000  -0.000002
   10  C  1 XX   -0.000051   0.000094   0.000055   0.000015  -0.000063
   11  C  1 YY   -0.000968   0.000058   0.000041   0.000006  -0.000111
   12  C  1 ZZ   -0.000111   0.000057  -0.000059   0.000004  -0.000253
   13  C  1 XY    0.000072   0.000026   0.000038  -0.000007   0.000024
   14  C  1 XZ    0.000000  -0.000000  -0.000000   0.000000   0.000000
   15  C  1 YZ   -0.000001  -0.000000   0.000000  -0.000000   0.000000
   16  C  2  S    0.000002   0.000004   0.000007   0.000012   0.000039
   17  C  2  S    0.000057   0.000010   0.000076   0.000103   0.000367
   18  C  2  X   -0.000038  -0.000032   0.000019  -0.000009   0.000041
   19  C  2  Y   -0.000067  -0.000010  -0.000035   0.000036   0.000031
   20  C  2  Z   -0.000000   0.000000   0.000000   0.000000  -0.000000
   21  C  2  S   -0.001223   0.000456  -0.000758  -0.001046  -0.007258
   22  C  2  X    0.001616  -0.000024   0.000644   0.000748   0.003911
   23  C  2  Y    0.001346  -0.000036   0.000778   0.000414   0.002396
   24  C  2  Z   -0.000000  -0.000001   0.000000  -0.000001  -0.000001
   25  C  2 XX    0.000044   0.000019  -0.000068  -0.000016  -0.000089
   26  C  2 YY   -0.000100  -0.000017   0.000002  -0.000054  -0.000068
   27  C  2 ZZ   -0.000009   0.000018  -0.000001   0.000010   0.000065
   28  C  2 XY    0.000041   0.000030  -0.000009  -0.000037  -0.000057
   29  C  2 XZ   -0.000000   0.000000   0.000000  -0.000000   0.000000
   30  C  2 YZ   -0.000000  -0.000000  -0.000000   0.000000  -0.000000
   31  C  3  S    0.000011   0.000025   0.000005   0.000024  -0.000177
   32  C  3  S    0.000045   0.000099   0.000017   0.000192  -0.000583
   33  C  3  X   -0.000010  -0.000088  -0.000018  -0.000283   0.000179
   34  C  3  Y    0.000074  -0.000025   0.000012  -0.000149  -0.000028
   35  C  3  Z    0.000000   0.000000   0.000000  -0.000000  -0.000001
   36  C  3  S    0.001103  -0.000116   0.000933   0.000948   0.004518
   37  C  3  X   -0.000243   0.000166  -0.000197  -0.000744  -0.003114
   38  C  3  Y    0.000364  -0.000282   0.000276   0.000508   0.003464
   39  C  3  Z    0.000001  -0.000001  -0.000000   0.000002   0.000009
   40  C  3 XX    0.000001   0.000038  -0.000005   0.000060   0.000105
   41  C  3 YY    0.000049   0.000053   0.000022   0.000028   0.000070
   42  C  3 ZZ    0.000029   0.000052   0.000009  -0.000063  -0.000224
   43  C  3 XY    0.000031   0.000047   0.000005   0.000019   0.000022
   44  C  3 XZ    0.000000   0.000000   0.000000   0.000000  -0.000000
   45  C  3 YZ    0.000000  -0.000000   0.000000   0.000000   0.000001
   46  C  4  S    0.000034  -0.000020   0.000027   0.000027   0.994090
   47  C  4  S    0.000110   0.000411   0.000222   0.000192   0.039615
   48  C  4  X    0.000013   0.000084   0.000020   0.000294   0.000354
   49  C  4  Y    0.000087   0.000042   0.000303  -0.000155   0.000122
   50  C  4  Z   -0.000000   0.000001  -0.000000  -0.000001  -0.000004
   51  C  4  S    0.000356  -0.002263   0.000450   0.000431  -0.002813
   52  C  4  X   -0.000298   0.002826   0.000384   0.001062  -0.004382
   53  C  4  Y   -0.000010   0.001672   0.001087  -0.000203  -0.002456
   54  C  4  Z   -0.000002   0.000012   0.000001   0.000000  -0.000013
   55  C  4 XX    0.000060  -0.000775   0.000029   0.000060  -0.005137
   56  C  4 YY    0.000116  -0.000297  -0.000021   0.000028  -0.005488
   57  C  4 ZZ    0.000060  -0.000074  -0.000041  -0.000041  -0.006715
   58  C  4 XY   -0.000001  -0.000515   0.000009  -0.000003   0.000408
   59  C  4 XZ    0.000000  -0.000005   0.000000  -0.000000   0.000004
   60  C  4 YZ    0.000000  -0.000003  -0.000000   0.000000   0.000004
   61  C  5  S    0.000012   0.000003  -0.000006  -0.000002  -0.000011
   62  C  5  S    0.000062   0.000018  -0.000022  -0.000005  -0.000036
   63  C  5  X    0.000023   0.000007   0.000033   0.000008   0.000044
   64  C  5  Y    0.000056   0.000004  -0.000003   0.000011   0.000021
   65  C  5  Z   -0.000000  -0.000000   0.000000   0.000000   0.000000
   66  C  5  S   -0.001166  -0.000106  -0.000326  -0.000279  -0.001253
   67  C  5  X    0.000478   0.000043   0.000053   0.000083   0.000350
   68  C  5  Y    0.000150   0.000031   0.000098   0.000033   0.000219
   69  C  5  Z    0.000002   0.000001  -0.000000  -0.000000  -0.000001
   70  C  5 XX    0.000006  -0.000007  -0.000010   0.000007   0.000012
   71  C  5 YY    0.000011   0.000000  -0.000003  -0.000006  -0.000015
   72  C  5 ZZ    0.000006   0.000003  -0.000016  -0.000011  -0.000020
   73  C  5 XY   -0.000042  -0.000009   0.000008   0.000005   0.000026
   74  C  5 XZ    0.000000  -0.000000  -0.000000  -0.000000  -0.000000
   75  C  5 YZ   -0.000000   0.000000   0.000000  -0.000000  -0.000000
   76  N  6  S    0.000010   0.000002   0.000210   0.993496  -0.000170
   77  N  6  S    0.000042   0.000038   0.000008   0.031536   0.000229
   78  N  6  X   -0.000005   0.000043   0.000047  -0.000046   0.000029
   79  N  6  Y    0.000020   0.000026  -0.000025   0.000060  -0.000044
   80  N  6  Z   -0.000000   0.000000  -0.000000   0.000007  -0.000001
   81  N  6  S   -0.000224  -0.000476  -0.000171   0.000345  -0.000148
   82  N  6  X   -0.000057  -0.000239  -0.000301   0.000198   0.000738
   83  N  6  Y   -0.000132  -0.000501  -0.000354  -0.000807  -0.000803
   84  N  6  Z    0.000001  -0.000003   0.000000  -0.000006   0.000000
   85  N  6 XX   -0.000022  -0.000104   0.000003  -0.006627  -0.000618
   86  N  6 YY    0.000035   0.000061  -0.000032  -0.006527  -0.000194
   87  N  6 ZZ    0.000035  -0.000014  -0.000031  -0.006338   0.000114
   88  N  6 XY   -0.000004  -0.000069   0.000037  -0.000015   0.000223
   89  N  6 XZ    0.000000  -0.000000  -0.000000   0.000001   0.000002
   90  N  6 YZ    0.000000  -0.000000  -0.000000  -0.000001  -0.000001
   91  N  7  S    0.000010   0.000006   0.993546  -0.000208  -0.000190
   92  N  7  S    0.000084   0.000052   0.031425  -0.000000   0.000140
   93  N  7  X   -0.000005   0.000049   0.000028   0.000002  -0.000036
   94  N  7  Y   -0.000060   0.000015  -0.000187   0.000054   0.000036
   95  N  7  Z   -0.000000   0.000000   0.000004  -0.000000  -0.000000
   96  N  7  S   -0.000894  -0.000586  -0.000236  -0.000189   0.000286
   97  N  7  X   -0.000512  -0.000571  -0.000704  -0.000448  -0.000012
   98  N  7  Y    0.000586  -0.000003   0.000535  -0.000069   0.001460
   99  N  7  Z    0.000001  -0.000003  -0.000002   0.000000   0.000003
  100  N  7 XX    0.000051  -0.000027  -0.006450   0.000001  -0.000129
  101  N  7 YY   -0.000107   0.000013  -0.006449  -0.000033  -0.000655
  102  N  7 ZZ    0.000007  -0.000006  -0.006339  -0.000026   0.000066
  103  N  7 XY   -0.000056  -0.000128  -0.000057   0.000035  -0.000048
  104  N  7 XZ   -0.000000  -0.000000  -0.000000  -0.000000   0.000000
  105  N  7 YZ    0.000000  -0.000000   0.000000   0.000000   0.000001
  106  O  8  S    0.000079   0.993476  -0.000021  -0.000020  -0.000090
  107  O  8  S    0.000083   0.023732  -0.000101  -0.000094   0.001066
  108  O  8  X   -0.000002   0.001248  -0.000028  -0.000031   0.000154
  109  O  8  Y    0.000002   0.000729  -0.000015  -0.000019   0.000098
  110  O  8  Z    0.000000   0.000008  -0.000000  -0.000000   0.000002
  111  O  8  S   -0.000496   0.011442   0.000691   0.000633  -0.006760
  112  O  8  X   -0.000126   0.001128   0.000219  -0.000038  -0.002498
  113  O  8  Y   -0.000099   0.000668  -0.000153   0.000248  -0.001480
  114  O  8  Z   -0.000001   0.000007   0.000002   0.000002  -0.000019
  115  O  8 XX    0.000025  -0.006161  -0.000025  -0.000153   0.000279
  116  O  8 YY    0.000048  -0.006441  -0.000147  -0.000020   0.000516
  117  O  8 ZZ    0.000057  -0.006611  -0.000077  -0.000074   0.000723
  118  O  8 XY   -0.000020   0.000290  -0.000054   0.000024  -0.000210
  119  O  8 XZ   -0.000000   0.000003   0.000000   0.000000  -0.000004
  120  O  8 YZ   -0.000000   0.000002  -0.000000   0.000000  -0.000003
  121  O  9  S    0.993391  -0.000042  -0.000029  -0.000004  -0.000137
  122  O  9  S    0.023816   0.000087  -0.000133  -0.000017  -0.000608
  123  O  9  X    0.000073  -0.000002   0.000002   0.000005   0.000006
  124  O  9  Y   -0.001370  -0.000002   0.000034   0.000003   0.000001
  125  O  9  Z   -0.000001  -0.000000  -0.000000  -0.000000   0.000000
  126  O  9  S    0.012199  -0.000564   0.000943   0.000129   0.004395
  127  O  9  X    0.000097   0.000013   0.000203  -0.000029  -0.000160
  128  O  9  Y   -0.001410   0.000157  -0.000146  -0.000009  -0.000920
  129  O  9  Z   -0.000001   0.000001  -0.000000   0.000000  -0.000002
  130  O  9 XX   -0.006753   0.000061  -0.000094  -0.000010  -0.000413
  131  O  9 YY   -0.006241   0.000030  -0.000124  -0.000016  -0.000326
  132  O  9 ZZ   -0.006692   0.000058  -0.000089  -0.000014  -0.000335
  133  O  9 XY   -0.000041   0.000003  -0.000064   0.000006   0.000020
  134  O  9 XZ   -0.000000  -0.000000  -0.000000   0.000000   0.000000
  135  O  9 YZ    0.000000  -0.000000   0.000000  -0.000000   0.000000
  136  H 10  S   -0.000018  -0.000056  -0.000051   0.000284  -0.000070
  137  H 10  S   -0.000018  -0.000124  -0.000018  -0.000364  -0.000091
  138  H 11  S   -0.000065  -0.000056   0.000283  -0.000048  -0.000102
  139  H 11  S   -0.000173  -0.000116  -0.000345  -0.000015   0.000029
  140  H 12  S    0.000017   0.000002   0.000014  -0.000003   0.000034
  141  H 12  S   -0.000052   0.000013   0.000039   0.000007  -0.000059
  142  H 13  S    0.000056   0.000006  -0.000007   0.000005  -0.000010
  143  H 13  S    0.000031  -0.000004   0.000001   0.000005   0.000060
  144  H 14  S    0.000055   0.000006  -0.000007   0.000005  -0.000010
  145  H 14  S    0.000034  -0.000003   0.000001   0.000004   0.000059
  146  H 15  S    0.000002  -0.000016  -0.000006   0.000006   0.000231
  147  H 15  S    0.000044  -0.000144   0.000035   0.000291   0.001643

                      6          7          8          9         10
                  -10.7023   -10.6343   -10.6442   -10.6067    -1.1944
                     A          A          A          A          A   
    1  C  1  S    0.994118   0.000328  -0.005388   0.000033  -0.117110
    2  C  1  S    0.040434  -0.000255  -0.000539  -0.000175   0.224049
    3  C  1  X   -0.000720  -0.000026  -0.000159  -0.000070  -0.023523
    4  C  1  Y    0.000094  -0.000018   0.000063  -0.000052   0.146295
    5  C  1  Z    0.000000   0.000000   0.000000   0.000000   0.000089
    6  C  1  S   -0.008920   0.001025   0.006727  -0.000543   0.043975
    7  C  1  X   -0.005004   0.000849   0.002069   0.001923   0.018400
    8  C  1  Y    0.008208  -0.001539  -0.002667   0.000448  -0.057722
    9  C  1  Z    0.000007  -0.000001  -0.000003  -0.000001  -0.000046
   10  C  1 XX   -0.005881   0.000070  -0.000362  -0.000055  -0.015131
   11  C  1 YY   -0.005060   0.000110  -0.000219  -0.000009   0.020140
   12  C  1 ZZ   -0.006546  -0.000068  -0.000132  -0.000078  -0.020374
   13  C  1 XY    0.000090  -0.000078   0.000095  -0.000084  -0.002498
   14  C  1 XZ   -0.000000  -0.000000   0.000000  -0.000000  -0.000003
   15  C  1 YZ    0.000001   0.000000  -0.000000   0.000000   0.000028
   16  C  2  S    0.004997  -0.047485   0.992583  -0.005940  -0.022680
   17  C  2  S   -0.000108  -0.002290   0.042870  -0.000309   0.043073
   18  C  2  X    0.000278  -0.000030  -0.000147  -0.000176  -0.021683
   19  C  2  Y   -0.000028   0.000318  -0.000518  -0.000035   0.018956
   20  C  2  Z    0.000000   0.000001  -0.000000  -0.000000   0.000018
   21  C  2  S    0.007097   0.004691  -0.019166   0.004351   0.001875
   22  C  2  X   -0.006054   0.001245   0.002554   0.002618   0.009315
   23  C  2  Y    0.000602  -0.002868   0.001917   0.000278   0.015846
   24  C  2  Z    0.000003  -0.000004  -0.000000  -0.000001   0.000023
   25  C  2 XX   -0.000418   0.000022  -0.006936  -0.000379   0.003121
   26  C  2 YY   -0.000369  -0.000033  -0.006650  -0.000195   0.001541
   27  C  2 ZZ   -0.000209   0.000176  -0.006504  -0.000089  -0.001259
   28  C  2 XY    0.000094   0.000031   0.000032  -0.000161  -0.005008
   29  C  2 XZ    0.000000   0.000000   0.000000  -0.000000  -0.000005
   30  C  2 YZ   -0.000000  -0.000000  -0.000000  -0.000000   0.000004
   31  C  3  S   -0.000133   0.992441   0.046973   0.000247  -0.001665
   32  C  3  S   -0.000237   0.042947   0.001615  -0.000092   0.004176
   33  C  3  X    0.000014  -0.001030  -0.000060  -0.000079   0.003237
   34  C  3  Y   -0.000131   0.000104  -0.000337  -0.000030   0.011163
   35  C  3  Z    0.000000  -0.000000  -0.000000   0.000000   0.000005
   36  C  3  S   -0.000948  -0.011302   0.007495  -0.000893   0.007105
   37  C  3  X    0.001093  -0.000554  -0.001526   0.000310   0.005254
   38  C  3  Y    0.000570  -0.002997   0.003028  -0.000178   0.004607
   39  C  3  Z    0.000001  -0.000003   0.000004  -0.000002   0.000005
   40  C  3 XX    0.000046  -0.006956  -0.000550  -0.000043  -0.001229
   41  C  3 YY    0.000079  -0.006931  -0.000804   0.000036   0.000880
   42  C  3 ZZ   -0.000100  -0.006835  -0.000517  -0.000074   0.000207
   43  C  3 XY   -0.000017   0.000208  -0.000016  -0.000075  -0.000991
   44  C  3 XZ   -0.000000   0.000001   0.000000  -0.000000   0.000000
   45  C  3 YZ   -0.000000  -0.000000  -0.000000   0.000000   0.000003
   46  C  4  S    0.000060   0.000017   0.000006  -0.000004   0.042251
   47  C  4  S   -0.000562  -0.000406  -0.000075  -0.000026  -0.079802
   48  C  4  X   -0.000023  -0.000051   0.000038  -0.000022   0.055035
   49  C  4  Y   -0.000196   0.000051   0.000021   0.000011   0.053955
   50  C  4  Z    0.000000  -0.000000  -0.000000   0.000000   0.000335
   51  C  4  S   -0.000751   0.000739   0.001204  -0.000119  -0.009048
   52  C  4  X    0.004206   0.002377   0.001659  -0.000459  -0.029338
   53  C  4  Y   -0.000412   0.003702   0.001124   0.000128  -0.012718
   54  C  4  Z    0.000006   0.000009   0.000000   0.000000  -0.000129
   55  C  4 XX   -0.000148   0.000061   0.000031  -0.000035  -0.005305
   56  C  4 YY   -0.000085  -0.000007   0.000012   0.000007   0.005808
   57  C  4 ZZ   -0.000242  -0.000149  -0.000031  -0.000018   0.008259
   58  C  4 XY   -0.000048  -0.000011   0.000009  -0.000030  -0.006135
   59  C  4 XZ   -0.000002  -0.000001  -0.000000  -0.000000  -0.000063
   60  C  4 YZ    0.000000  -0.000001  -0.000000  -0.000000  -0.000042
   61  C  5  S   -0.000072  -0.000547   0.005670   0.994043  -0.006187
   62  C  5  S   -0.000262  -0.000142   0.000198   0.041753   0.011410
   63  C  5  X    0.000013   0.000038   0.000135  -0.000248  -0.007599
   64  C  5  Y   -0.000078   0.000059   0.000168  -0.000109  -0.000992
   65  C  5  Z    0.000000   0.000000  -0.000002  -0.000001   0.000009
   66  C  5  S    0.002232  -0.000435   0.001897  -0.017459  -0.002640
   67  C  5  X   -0.000734  -0.000162  -0.000795   0.001217   0.000404
   68  C  5  Y   -0.000734   0.000322  -0.001190   0.000593   0.001570
   69  C  5  Z   -0.000001  -0.000002   0.000009   0.000003  -0.000031
   70  C  5 XX    0.000005   0.000075  -0.000393  -0.006220   0.001425
   71  C  5 YY    0.000056   0.000019  -0.000206  -0.006226   0.000295
   72  C  5 ZZ   -0.000081  -0.000059  -0.000082  -0.006167  -0.000214
   73  C  5 XY    0.000069   0.000019  -0.000137  -0.000060   0.000326
   74  C  5 XZ   -0.000000  -0.000000   0.000000   0.000000  -0.000002
   75  C  5 YZ    0.000000  -0.000000  -0.000000  -0.000000   0.000000
   76  N  6  S    0.000030  -0.000189   0.000060  -0.000035   0.016481
   77  N  6  S    0.000132   0.000170   0.000199  -0.000138  -0.035569
   78  N  6  X   -0.000029   0.000055   0.000003  -0.000001   0.015599
   79  N  6  Y   -0.000023  -0.000005   0.000042  -0.000025   0.002831
   80  N  6  Z    0.000001   0.000000   0.000000  -0.000000  -0.000031
   81  N  6  S   -0.001753   0.000144  -0.002860   0.001095  -0.018068
   82  N  6  X    0.001356  -0.001887  -0.000276   0.000116   0.010067
   83  N  6  Y   -0.000699  -0.001355  -0.001394   0.000522   0.005740
   84  N  6  Z   -0.000008  -0.000002  -0.000003   0.000002   0.000037
   85  N  6 XX    0.000068  -0.000586   0.000130  -0.000030  -0.003135
   86  N  6 YY    0.000009  -0.000220   0.000199  -0.000053  -0.000258
   87  N  6 ZZ    0.000045   0.000053   0.000106  -0.000088   0.001084
   88  N  6 XY    0.000057  -0.000270   0.000019   0.000032   0.001031
   89  N  6 XZ    0.000001  -0.000000   0.000000   0.000000   0.000007
   90  N  6 YZ   -0.000001  -0.000002  -0.000001   0.000000   0.000010
   91  N  7  S   -0.000193   0.000069   0.000067  -0.000059  -0.032893
   92  N  7  S    0.000078   0.000277   0.000166  -0.000237   0.067797
   93  N  7  X   -0.000019   0.000001   0.000025  -0.000053   0.029207
   94  N  7  Y    0.000135  -0.000027  -0.000031  -0.000027   0.040237
   95  N  7  Z    0.000000   0.000001   0.000000  -0.000000   0.000041
   96  N  7  S    0.001668  -0.003477  -0.002685   0.001970   0.062300
   97  N  7  X   -0.001089  -0.000665  -0.001052   0.001074   0.017223
   98  N  7  Y   -0.002985   0.001651   0.000676   0.000679   0.029977
   99  N  7  Z   -0.000003  -0.000005  -0.000000   0.000001   0.000073
  100  N  7 XX   -0.000589   0.000156   0.000201  -0.000043   0.005318
  101  N  7 YY   -0.000393   0.000080   0.000145  -0.000104   0.001017
  102  N  7 ZZ    0.000017   0.000126   0.000089  -0.000149  -0.002788
  103  N  7 XY   -0.000408   0.000020  -0.000006   0.000059   0.003617
  104  N  7 XZ   -0.000000  -0.000000  -0.000000   0.000000   0.000003
  105  N  7 YZ    0.000000   0.000001   0.000000  -0.000000  -0.000002
  106  O  8  S   -0.000126  -0.000117  -0.000052  -0.000001   0.071329
  107  O  8  S   -0.000556  -0.000518  -0.000233  -0.000002  -0.150584
  108  O  8  X    0.000010  -0.000022  -0.000018  -0.000000  -0.050480
  109  O  8  Y   -0.000011  -0.000008  -0.000012   0.000003  -0.027041
  110  O  8  Z   -0.000001  -0.000001  -0.000001   0.000000  -0.000242
  111  O  8  S    0.003848   0.003623   0.001560  -0.000095  -0.166357
  112  O  8  X    0.000598   0.000807   0.000275   0.000057  -0.023363
  113  O  8  Y    0.000815   0.000112   0.000145  -0.000023  -0.012352
  114  O  8  Z    0.000008   0.000008   0.000004  -0.000001  -0.000139
  115  O  8 XX   -0.000326  -0.000289  -0.000142   0.000020  -0.002119
  116  O  8 YY   -0.000325  -0.000366  -0.000145   0.000002   0.002914
  117  O  8 ZZ   -0.000327  -0.000288  -0.000142  -0.000019   0.003673
  118  O  8 XY    0.000088  -0.000005  -0.000001   0.000013  -0.004111
  119  O  8 XZ    0.000000   0.000001   0.000000   0.000000  -0.000041
  120  O  8 YZ    0.000001  -0.000001   0.000000  -0.000000  -0.000020
  121  O  9  S   -0.000029  -0.000055   0.000003  -0.000030  -0.175204
  122  O  9  S    0.001273  -0.000238  -0.000049  -0.000116   0.377068
  123  O  9  X   -0.000046  -0.000001   0.000019  -0.000036   0.006842
  124  O  9  Y   -0.000152   0.000034  -0.000022   0.000031  -0.138123
  125  O  9  Z   -0.000000  -0.000000   0.000000   0.000000  -0.000085
  126  O  9  S   -0.008158   0.001467   0.000216   0.000388   0.387723
  127  O  9  X    0.000603   0.000007  -0.000303  -0.000196  -0.000012
  128  O  9  Y    0.003161  -0.000306   0.000085  -0.000181  -0.059919
  129  O  9  Z    0.000002   0.000000   0.000000  -0.000001  -0.000033
  130  O  9 XX    0.000769  -0.000144   0.000052  -0.000087  -0.010656
  131  O  9 YY    0.000201  -0.000167   0.000037  -0.000061   0.009588
  132  O  9 ZZ    0.000865  -0.000145  -0.000051  -0.000147  -0.005163
  133  O  9 XY   -0.000123  -0.000018   0.000018   0.000024  -0.000784
  134  O  9 XZ    0.000000  -0.000000  -0.000000  -0.000000   0.000001
  135  O  9 YZ   -0.000000  -0.000000   0.000000   0.000000   0.000011
  136  H 10  S   -0.000015  -0.000217  -0.000111   0.000020  -0.010227
  137  H 10  S   -0.000091  -0.000316  -0.000052   0.000137   0.000091
  138  H 11  S    0.000018  -0.000072  -0.000099  -0.000014   0.016172
  139  H 11  S    0.000083  -0.000127  -0.000002   0.000156   0.000103
  140  H 12  S   -0.000053  -0.000027  -0.000092   0.000046   0.001720
  141  H 12  S    0.000010   0.000270  -0.000329   0.002632   0.000716
  142  H 13  S   -0.000081   0.000018  -0.000125   0.000106   0.002926
  143  H 13  S    0.000014  -0.000023   0.000459   0.002750   0.001878
  144  H 14  S   -0.000080   0.000018  -0.000126   0.000105   0.002894
  145  H 14  S    0.000010  -0.000025   0.000469   0.002754   0.001821
  146  H 15  S   -0.000031  -0.000226  -0.000043  -0.000026  -0.000162
  147  H 15  S    0.000042   0.001496   0.000501  -0.000200  -0.002251

                     11         12         13         14         15
                   -1.2273    -1.1176    -1.0518    -0.9585    -0.8306
                     A          A          A          A          A   
    1  C  1  S   -0.048614  -0.002638  -0.025881  -0.035701   0.015343
    2  C  1  S    0.098370   0.005650   0.054650   0.071738  -0.032141
    3  C  1  X   -0.021629  -0.005712  -0.080572   0.089613   0.036919
    4  C  1  Y    0.019642  -0.081267  -0.134978  -0.085704   0.028267
    5  C  1  Z    0.000021  -0.000047  -0.000032  -0.000108   0.000014
    6  C  1  S   -0.010525  -0.037567   0.002217   0.042244  -0.010317
    7  C  1  X    0.003209   0.004720   0.026181  -0.003583   0.003938
    8  C  1  Y    0.021263   0.027733   0.027404  -0.028798   0.015282
    9  C  1  Z    0.000017   0.000024  -0.000006  -0.000010   0.000016
   10  C  1 XX   -0.002794   0.006640   0.014689   0.007126   0.000787
   11  C  1 YY    0.006696  -0.005031  -0.008845  -0.004346  -0.001403
   12  C  1 ZZ   -0.007111   0.000840  -0.001961  -0.001965   0.001984
   13  C  1 XY    0.001898   0.003140   0.013248  -0.008154   0.001346
   14  C  1 XZ   -0.000003  -0.000001  -0.000002  -0.000011   0.000000
   15  C  1 YZ    0.000007  -0.000005  -0.000012   0.000004  -0.000006
   16  C  2  S   -0.018082  -0.037641   0.000485  -0.159668  -0.003534
   17  C  2  S    0.030658   0.067991  -0.002092   0.313974   0.005863
   18  C  2  X   -0.015782  -0.016000  -0.017608   0.007078   0.106313
   19  C  2  Y   -0.004110  -0.039017   0.013215  -0.039813   0.152714
   20  C  2  Z    0.000002  -0.000033   0.000026  -0.000067   0.000081
   21  C  2  S    0.070635   0.084380   0.007977   0.218837   0.016549
   22  C  2  X   -0.031053  -0.045872  -0.009079   0.001707   0.028012
   23  C  2  Y   -0.022139  -0.031070  -0.021647   0.018708   0.027178
   24  C  2  Z   -0.000012  -0.000002  -0.000014  -0.000000   0.000012
   25  C  2 XX    0.001615  -0.001275   0.003634  -0.000471   0.010356
   26  C  2 YY    0.001967   0.003256  -0.004058   0.001487  -0.008329
   27  C  2 ZZ   -0.001643  -0.003385   0.000048  -0.007651   0.000478
   28  C  2 XY   -0.000840   0.002552  -0.000817   0.002555   0.006440
   29  C  2 XZ   -0.000002   0.000001  -0.000005  -0.000002  -0.000006
   30  C  2 YZ    0.000003   0.000007  -0.000003   0.000008  -0.000020
   31  C  3  S   -0.026020  -0.083633   0.040007  -0.089317   0.109794
   32  C  3  S    0.054905   0.160872  -0.079962   0.174176  -0.219215
   33  C  3  X   -0.031299  -0.078407   0.038993   0.036301   0.021239
   34  C  3  Y   -0.003858  -0.017393   0.033165   0.121535  -0.004349
   35  C  3  Z    0.000012   0.000003   0.000023   0.000062   0.000077
   36  C  3  S   -0.028148   0.016477  -0.051982   0.132171  -0.179389
   37  C  3  X    0.033347   0.033660  -0.011843   0.010796  -0.012075
   38  C  3  Y   -0.030426  -0.014032  -0.003847   0.023493   0.000125
   39  C  3  Z   -0.000056  -0.000026   0.000021   0.000049  -0.000004
   40  C  3 XX    0.003305   0.008348  -0.004676  -0.008854   0.001166
   41  C  3 YY   -0.000846  -0.000551   0.000505   0.010682  -0.000458
   42  C  3 ZZ   -0.001436  -0.007403   0.002935  -0.004541   0.005465
   43  C  3 XY    0.002166   0.006867  -0.005807  -0.005239   0.004116
   44  C  3 XZ   -0.000002  -0.000000  -0.000003   0.000001  -0.000003
   45  C  3 YZ   -0.000002   0.000009  -0.000001   0.000021  -0.000017
   46  C  4  S   -0.131381  -0.006844  -0.020740   0.029629  -0.048844
   47  C  4  S    0.262132   0.017049   0.044684  -0.064181   0.109968
   48  C  4  X   -0.074171   0.197565  -0.006748  -0.086027   0.107595
   49  C  4  Y   -0.049619   0.058686   0.173647  -0.011546  -0.012545
   50  C  4  Z   -0.000702   0.000351   0.000261  -0.000055  -0.000010
   51  C  4  S    0.013186  -0.027794  -0.002420  -0.020375   0.049795
   52  C  4  X    0.006062  -0.041222  -0.003546   0.000932   0.010506
   53  C  4  Y    0.007828  -0.014132  -0.021722  -0.009463   0.006050
   54  C  4  Z    0.000275  -0.000001   0.000013  -0.000043   0.000074
   55  C  4 XX    0.009669   0.000420  -0.016366   0.000615  -0.001770
   56  C  4 YY   -0.003617   0.005897   0.018689  -0.003636   0.002584
   57  C  4 ZZ   -0.022047   0.001147  -0.002433   0.003230  -0.005180
   58  C  4 XY    0.013228  -0.020597   0.004192   0.010798  -0.011229
   59  C  4 XZ    0.000123  -0.000153  -0.000013   0.000056  -0.000058
   60  C  4 YZ    0.000088  -0.000052  -0.000035   0.000005   0.000008
   61  C  5  S   -0.002698  -0.006146   0.003244  -0.088220  -0.148072
   62  C  5  S    0.005999   0.011498  -0.005015   0.165870   0.283066
   63  C  5  X   -0.004151  -0.006621   0.000913  -0.050433  -0.002280
   64  C  5  Y   -0.001578  -0.006464   0.001556  -0.035975   0.012486
   65  C  5  Z    0.000000  -0.000004  -0.000004  -0.000003  -0.000033
   66  C  5  S    0.010853   0.028472   0.002996   0.120999   0.266780
   67  C  5  X   -0.002419  -0.005410   0.002211   0.001431   0.007130
   68  C  5  Y   -0.001011  -0.004246  -0.004996  -0.006424   0.003552
   69  C  5  Z    0.000014   0.000024   0.000026  -0.000021   0.000005
   70  C  5 XX    0.000758   0.001020  -0.000017   0.005254  -0.000119
   71  C  5 YY    0.000248   0.000405  -0.000061   0.002661   0.001415
   72  C  5 ZZ    0.000155  -0.000123   0.000212  -0.001548   0.003910
   73  C  5 XY    0.000201   0.001228   0.000044   0.005242  -0.003008
   74  C  5 XZ   -0.000001   0.000001   0.000003   0.000001  -0.000007
   75  C  5 YZ    0.000000  -0.000001  -0.000003  -0.000006   0.000002
   76  N  6  S   -0.074366  -0.147600   0.089624   0.057621  -0.024789
   77  N  6  S    0.150694   0.303714  -0.191273  -0.124051   0.054024
   78  N  6  X   -0.036851   0.020697  -0.018086   0.073007  -0.189116
   79  N  6  Y    0.020339   0.035258   0.025381   0.035972  -0.046248
   80  N  6  Z    0.000168   0.000378  -0.000175  -0.000229   0.000301
   81  N  6  S    0.171189   0.355056  -0.197986  -0.146080   0.078918
   82  N  6  X   -0.023035   0.010117  -0.002065   0.034652  -0.081225
   83  N  6  Y    0.026611   0.043193   0.015458   0.016748  -0.024935
   84  N  6  Z    0.000072   0.000299  -0.000136  -0.000154   0.000165
   85  N  6 XX    0.007471  -0.000629  -0.001869   0.002727  -0.003704
   86  N  6 YY    0.002585   0.008285  -0.004310  -0.003133   0.002000
   87  N  6 ZZ   -0.006570  -0.012163   0.005354   0.002493  -0.000353
   88  N  6 XY   -0.003009   0.001608  -0.004051   0.006390  -0.009617
   89  N  6 XZ   -0.000029  -0.000016   0.000002   0.000035  -0.000069
   90  N  6 YZ   -0.000003   0.000002   0.000040   0.000025  -0.000018
   91  N  7  S   -0.070044  -0.046321  -0.171256   0.024358   0.003080
   92  N  7  S    0.140417   0.089451   0.351543  -0.051149  -0.005685
   93  N  7  X    0.004442   0.026980   0.003471   0.029691  -0.017159
   94  N  7  Y   -0.033261  -0.020197  -0.013982   0.020559  -0.064560
   95  N  7  Z    0.000003   0.000039   0.000151  -0.000054   0.000024
   96  N  7  S    0.154776   0.136424   0.419674  -0.067804  -0.010175
   97  N  7  X    0.013831   0.037265   0.021264   0.002188  -0.005528
   98  N  7  Y   -0.021233  -0.013176  -0.012818   0.000360  -0.025215
   99  N  7  Z   -0.000064   0.000037   0.000113  -0.000016  -0.000010
  100  N  7 XX    0.002527   0.000522   0.008109   0.002326  -0.003785
  101  N  7 YY    0.009965  -0.000540   0.002856  -0.003625   0.003736
  102  N  7 ZZ   -0.007011  -0.005512  -0.014582   0.001537   0.000560
  103  N  7 XY    0.002672  -0.004251  -0.003423   0.002719  -0.002269
  104  N  7 XZ   -0.000011  -0.000000  -0.000023   0.000005   0.000000
  105  N  7 YZ    0.000007  -0.000011  -0.000009   0.000002  -0.000007
  106  O  8  S   -0.143449   0.110045   0.032414  -0.034057   0.034899
  107  O  8  S    0.309524  -0.236512  -0.070028   0.074814  -0.077277
  108  O  8  X    0.107644  -0.057544  -0.026015   0.001868   0.022483
  109  O  8  Y    0.062327  -0.042120   0.013521   0.009414  -0.009564
  110  O  8  Z    0.000506  -0.000371  -0.000076   0.000085  -0.000036
  111  O  8  S    0.292456  -0.249427  -0.076368   0.080345  -0.092798
  112  O  8  X    0.044408  -0.019773  -0.011881  -0.001386   0.011972
  113  O  8  Y    0.024918  -0.017372   0.011868   0.004380  -0.004224
  114  O  8  Z    0.000171  -0.000203  -0.000049   0.000028  -0.000008
  115  O  8 XX    0.007114  -0.000012  -0.003043  -0.001526   0.003788
  116  O  8 YY   -0.002461   0.001678   0.004226  -0.000057  -0.000367
  117  O  8 ZZ   -0.005235   0.004405   0.001168  -0.000834   0.000486
  118  O  8 XY    0.009703  -0.004709   0.001672   0.000432   0.000440
  119  O  8 XZ    0.000074  -0.000051  -0.000025   0.000003   0.000008
  120  O  8 YZ    0.000039  -0.000040   0.000016   0.000010  -0.000008
  121  O  9  S   -0.049115   0.046556   0.066116   0.033025  -0.000456
  122  O  9  S    0.109146  -0.101333  -0.143393  -0.075704   0.003348
  123  O  9  X    0.000304  -0.003301  -0.016421   0.018148   0.019508
  124  O  9  Y   -0.042145   0.029251   0.029595   0.008022   0.005073
  125  O  9  Z   -0.000025   0.000020   0.000028  -0.000006   0.000003
  126  O  9  S    0.086707  -0.104474  -0.159620  -0.065392  -0.010662
  127  O  9  X   -0.001885  -0.002288  -0.012836   0.008774   0.008804
  128  O  9  Y   -0.015281   0.009437   0.011383  -0.001163   0.006735
  129  O  9  Z   -0.000006   0.000001   0.000013  -0.000005   0.000009
  130  O  9 XX   -0.001901   0.001930   0.002766   0.000575   0.001669
  131  O  9 YY    0.004670  -0.000917   0.000531  -0.000383  -0.000069
  132  O  9 ZZ   -0.000464   0.000975   0.001466  -0.000497   0.000860
  133  O  9 XY    0.000330   0.000549   0.002960  -0.002532  -0.001386
  134  O  9 XZ    0.000001   0.000000   0.000002  -0.000001  -0.000001
  135  O  9 YZ    0.000003  -0.000001  -0.000003   0.000002  -0.000001
  136  H 10  S    0.035105   0.075063  -0.063802  -0.052761   0.040243
  137  H 10  S    0.001528   0.000621  -0.001242   0.000052   0.002002
  138  H 11  S    0.031751   0.016029   0.099477  -0.022147  -0.009504
  139  H 11  S    0.000879   0.000316   0.001670  -0.000627  -0.004585
  140  H 12  S    0.000836   0.002985  -0.002184   0.046221   0.095324
  141  H 12  S   -0.000112  -0.002103  -0.003295   0.003928   0.020170
  142  H 13  S    0.001226   0.001764  -0.001092   0.043995   0.103587
  143  H 13  S   -0.000126  -0.001571  -0.000521   0.003751   0.024243
  144  H 14  S    0.001219   0.001779  -0.001088   0.044035   0.103616
  145  H 14  S   -0.000109  -0.001530  -0.000485   0.003729   0.024287
  146  H 15  S    0.005009   0.026106  -0.017277   0.039940  -0.067076
  147  H 15  S   -0.016695  -0.009188   0.003133   0.003600  -0.008705

                     16         17         18         19         20
                   -0.7806    -0.7570    -0.6517    -0.6605    -0.5543
                     A          A          A          A          A   
    1  C  1  S    0.084398  -0.077546  -0.020604  -0.030195   0.056551
    2  C  1  S   -0.177671   0.169464   0.040632   0.067953  -0.133502
    3  C  1  X   -0.097260  -0.099979   0.259680  -0.103016  -0.050158
    4  C  1  Y    0.128805  -0.103929  -0.004672  -0.051848  -0.163159
    5  C  1  Z    0.000137  -0.000038  -0.000060  -0.000119  -0.000827
    6  C  1  S   -0.115577   0.100848   0.059443   0.031017  -0.124694
    7  C  1  X   -0.023040   0.019348   0.049093   0.005637  -0.024632
    8  C  1  Y    0.043722  -0.013485  -0.014269  -0.011898   0.009675
    9  C  1  Z    0.000014   0.000010  -0.000015  -0.000007  -0.000323
   10  C  1 XX    0.000141   0.013156  -0.003663  -0.005089   0.004356
   11  C  1 YY    0.003113  -0.014604  -0.001682   0.001997   0.006271
   12  C  1 ZZ    0.006215  -0.007205   0.001232  -0.003791   0.004985
   13  C  1 XY    0.003787   0.006495  -0.005455   0.009396   0.002343
   14  C  1 XZ    0.000006  -0.000003  -0.000007   0.000010   0.000004
   15  C  1 YZ   -0.000006  -0.000006  -0.000003   0.000009   0.000004
   16  C  2  S    0.055570   0.011660  -0.015785   0.082389  -0.025410
   17  C  2  S   -0.111084  -0.025768   0.030064  -0.171418   0.052224
   18  C  2  X    0.165674  -0.037410  -0.122193  -0.062062  -0.005050
   19  C  2  Y   -0.064135   0.104421   0.220144   0.043994  -0.135476
   20  C  2  Z   -0.000154   0.000105   0.000262  -0.000121  -0.000833
   21  C  2  S   -0.121744  -0.013712   0.074435  -0.186401   0.067917
   22  C  2  X    0.035019  -0.007351  -0.035110  -0.020223  -0.040077
   23  C  2  Y   -0.012316   0.000783   0.047799  -0.002299  -0.064113
   24  C  2  Z   -0.000045  -0.000034   0.000062  -0.000124  -0.000406
   25  C  2 XX   -0.003252   0.009422   0.005144   0.008195  -0.001856
   26  C  2 YY    0.008152  -0.007320  -0.006577   0.000861  -0.002031
   27  C  2 ZZ    0.001191   0.000920   0.000726   0.001472  -0.001335
   28  C  2 XY    0.008242  -0.001466  -0.003416   0.004496   0.008139
   29  C  2 XZ    0.000006  -0.000006  -0.000007   0.000005   0.000027
   30  C  2 YZ    0.000008  -0.000011  -0.000005   0.000008  -0.000011
   31  C  3  S   -0.075374   0.037299   0.031558  -0.013047   0.027428
   32  C  3  S    0.151578  -0.073700  -0.058532   0.030497  -0.057753
   33  C  3  X    0.031782  -0.015765  -0.130341  -0.180392  -0.099625
   34  C  3  Y   -0.115703  -0.091357  -0.152413  -0.145501   0.185607
   35  C  3  Z   -0.000208  -0.000049  -0.000113  -0.000454  -0.000157
   36  C  3  S    0.139281  -0.085915  -0.108214   0.001234  -0.116933
   37  C  3  X    0.028784  -0.013271  -0.038475  -0.040171  -0.041786
   38  C  3  Y   -0.014098  -0.022801  -0.048455  -0.030540   0.076706
   39  C  3  Z   -0.000009  -0.000017  -0.000034  -0.000080  -0.000062
   40  C  3 XX    0.003728  -0.000032   0.004827   0.015986  -0.012058
   41  C  3 YY   -0.003922   0.003126   0.000001  -0.015398   0.008788
   42  C  3 ZZ   -0.003243   0.001110  -0.000873  -0.003429  -0.000626
   43  C  3 XY    0.004489   0.006252   0.008772   0.004091   0.009401
   44  C  3 XZ    0.000003   0.000003   0.000012   0.000030   0.000032
   45  C  3 YZ    0.000006  -0.000003  -0.000000  -0.000002  -0.000025
   46  C  4  S    0.029656   0.095144   0.008218   0.014756   0.049790
   47  C  4  S   -0.066816  -0.215756  -0.018085  -0.038694  -0.121510
   48  C  4  X   -0.121636  -0.083686  -0.143384   0.039820   0.043605
   49  C  4  Y    0.096650  -0.158803   0.220334   0.031661   0.145240
   50  C  4  Z    0.000221  -0.000018   0.000471  -0.000427  -0.000286
   51  C  4  S   -0.019536  -0.102392  -0.012970  -0.026595  -0.103087
   52  C  4  X   -0.008419  -0.036154  -0.025442   0.006829  -0.020631
   53  C  4  Y   -0.003219  -0.020774   0.034630   0.020419  -0.005342
   54  C  4  Z   -0.000092  -0.000175   0.000046  -0.000082  -0.000361
   55  C  4 XX   -0.005425   0.004448  -0.007493   0.011938  -0.003519
   56  C  4 YY    0.006867  -0.000325   0.008515  -0.009990   0.012409
   57  C  4 ZZ    0.003257   0.010463   0.000737   0.000898   0.004657
   58  C  4 XY   -0.000019   0.001606   0.003881   0.016530   0.000667
   59  C  4 XZ    0.000045   0.000052   0.000058  -0.000011  -0.000003
   60  C  4 YZ   -0.000019   0.000030  -0.000052  -0.000017  -0.000034
   61  C  5  S   -0.072152  -0.021183   0.009969  -0.051790  -0.003861
   62  C  5  S    0.139021   0.043049  -0.019668   0.102093   0.004861
   63  C  5  X    0.046461   0.003205  -0.070187   0.112282   0.043651
   64  C  5  Y   -0.001626   0.020716   0.060612   0.093305  -0.034388
   65  C  5  Z   -0.000058  -0.000015   0.000109  -0.000159  -0.000705
   66  C  5  S    0.146921   0.046509  -0.025622   0.132151   0.035816
   67  C  5  X    0.011484   0.006726  -0.030774   0.039240   0.006485
   68  C  5  Y   -0.001782   0.004072   0.033749   0.030477  -0.021168
   69  C  5  Z   -0.000024   0.000082   0.000057   0.000018  -0.000358
   70  C  5 XX   -0.004065  -0.000247   0.002647  -0.006275   0.000008
   71  C  5 YY    0.003472  -0.001283  -0.005857   0.000601   0.002264
   72  C  5 ZZ    0.002649   0.002066   0.002114   0.008440  -0.001406
   73  C  5 XY   -0.003983  -0.001811   0.001707  -0.009498  -0.000615
   74  C  5 XZ    0.000009  -0.000006  -0.000044  -0.000008   0.000037
   75  C  5 YZ   -0.000017   0.000007   0.000069   0.000008  -0.000073
   76  N  6  S   -0.003803  -0.039080  -0.015163   0.000124  -0.012013
   77  N  6  S    0.010489   0.087266   0.034531  -0.000779   0.023270
   78  N  6  X    0.198449   0.080719   0.241456   0.173488   0.036570
   79  N  6  Y   -0.052892  -0.229930  -0.099608   0.285493  -0.148541
   80  N  6  Z   -0.000199   0.000040  -0.000076  -0.000710  -0.000430
   81  N  6  S   -0.001513   0.118633   0.043415  -0.004231   0.061682
   82  N  6  X    0.100135   0.032417   0.119149   0.076709   0.036427
   83  N  6  Y   -0.028263  -0.117495  -0.054683   0.154412  -0.066858
   84  N  6  Z   -0.000111   0.000100  -0.000008  -0.000443  -0.000272
   85  N  6 XX    0.001762  -0.007276  -0.006789   0.005031  -0.015636
   86  N  6 YY    0.001502   0.009436   0.007316  -0.012976   0.016392
   87  N  6 ZZ   -0.000035  -0.001336  -0.000850  -0.000558  -0.001938
   88  N  6 XY    0.005902   0.005883   0.002085   0.001585   0.004379
   89  N  6 XZ    0.000067   0.000033   0.000075   0.000055   0.000044
   90  N  6 YZ   -0.000034  -0.000121  -0.000051   0.000108  -0.000073
   91  N  7  S   -0.044224  -0.023573   0.003165   0.013299  -0.018153
   92  N  7  S    0.097286   0.050580  -0.006363  -0.031936   0.035874
[...]
   1            2     -453.8726375392     0.00864682
   2            2     -453.6653569257     0.01787879
   3            2     -453.6579636965     0.01176066
   4            2     -453.6166061921     0.02531698
   5            2     -453.6057855006     0.01795106
   6            2     -453.6004217354     0.01711620
   7            2     -453.5949509775     0.01135225
   8            2     -453.5517533700     0.03315065
   9            2     -453.5399944195     0.01658886
  10            2     -453.5219356710     0.01271980

 STATE      ITERATION      ENERGY         RESIDUE NORM
   1            3     -453.8727171290     0.00075998
   2            3     -453.6661145426     0.00461573
   3            3     -453.6582320735     0.00283632
   4            3     -453.6191051198     0.00713887
   5            3     -453.6065460339     0.00425739
   6            3     -453.6014679699     0.00727742
   7            3     -453.5953446105     0.00339403
   8            3     -453.5584737666     0.02370124
   9            3     -453.5416990319     0.01056135
  10            3     -453.5225135294     0.00530474

 STATE      ITERATION      ENERGY         RESIDUE NORM
   1            4     -453.8727176741     0.00008035
   2            4     -453.6661637609     0.00134368
   3            4     -453.6582467384     0.00074427
   4            4     -453.6192403633     0.00231858
   5            4     -453.6065806221     0.00107643
   6            4     -453.6015806591     0.00213038
   7            4     -453.5953721980     0.00100012
   8            4     -453.5600434913     0.01010035
   9            4     -453.5420390089     0.00372536
  10            4     -453.5229354537     0.05398111

 STATE      ITERATION      ENERGY         RESIDUE NORM
   1            5     -453.8727176791     0.00000720
   2            5     -453.6661662849     0.00027652
   3            5     -453.6582476877     0.00016159
   4            5     -453.6192498864     0.00053910
   5            5     -453.6065828963     0.00026999
   6            5     -453.6015904886     0.00065530
   7            5     -453.5953741038     0.00026984
   8            5     -453.5603413988     0.00471338
   9            5     -453.5420852653     0.00283643
  10            5     -453.5315144576     0.02680746

 STATE      ITERATION      ENERGY         RESIDUE NORM
   1            6     -453.8727176792     0.00000068
   2            6     -453.6661663878     0.00005622
   3            6     -453.6582477183     0.00001653
   4            6     -453.6192502439     0.00006444
   5            6     -453.6065830008     0.00004903
   6            6     -453.6015910563     0.00008198
   7            6     -453.5953743079     0.00012587
   8            6     -453.5603762458     0.00081456
   9            6     -453.5421801787     0.00606885
  10            6     -453.5392612327     0.03281763

 STATE      ITERATION      ENERGY         RESIDUE NORM
   1            7     -453.8727176792     0.00000006
   2            7     -453.6661663919     0.00001319
   3            7     -453.6582477185     0.00000214
   4            7     -453.6192502479     0.00000828
   5            7     -453.6065830040     0.00000963
   6            7     -453.6015910634     0.00001239
   7            7     -453.5953743300     0.00002531
   8            7     -453.5603771285     0.00016346
   9            7     -453.5423932037     0.00599444
  10            7     -453.5412960225     0.01064316

 STATE      ITERATION      ENERGY         RESIDUE NORM
   1            8     -453.8727176792     0.00000000
   2            8     -453.6661663921     0.00000255
   3            8     -453.6582477185     0.00000021
   4            8     -453.6192502479     0.00000096
   5            8     -453.6065830041     0.00000246
   6            8     -453.6015910636     0.00000167
   7            8     -453.5953743307     0.00000422
   8            8     -453.5603771630     0.00002549
   9            8     -453.5424628132     0.00178300
  10            8     -453.5414805780     0.00230775

 STATE      ITERATION      ENERGY         RESIDUE NORM
   1            9     -453.8727176792     0.00000000
   2            9     -453.6661663921     0.00000041
   3            9     -453.6582477185     0.00000002
   4            9     -453.6192502479     0.00000011
   5            9     -453.6065830041     0.00000050
   6            9     -453.6015910636     0.00000020
   7            9     -453.5953743308     0.00000083
   8            9     -453.5603771637     0.00000320
   9            9     -453.5424672914     0.00046405
  10            9     -453.5414877627     0.00054660

 STATE      ITERATION      ENERGY         RESIDUE NORM
   1           10     -453.8727176792     0.00000000
   2           10     -453.6661663921     0.00000006
   3           10     -453.6582477185     0.00000000
   4           10     -453.6192502479     0.00000001
   5           10     -453.6065830041     0.00000009
   6           10     -453.6015910636     0.00000003
   7           10     -453.5953743308     0.00000013
   8           10     -453.5603771637     0.00000041
   9           10     -453.5424675099     0.00008386
  10           10     -453.5414880896     0.00010255

 STATE      ITERATION      ENERGY         RESIDUE NORM
   1           11     -453.8727176792     0.00000000
   2           11     -453.6661663921     0.00000001
   3           11     -453.6582477185     0.00000000
   4           11     -453.6192502479     0.00000000
   5           11     -453.6065830041     0.00000001
   6           11     -453.6015910636     0.00000000
   7           11     -453.5953743308     0.00000002
   8           11     -453.5603771637     0.00000007
   9           11     -453.5424675162     0.00001475
  10           11     -453.5414880998     0.00001848

 STATE      ITERATION      ENERGY         RESIDUE NORM
   1           12     -453.8727176792     0.00000000
   2           12     -453.6661663921     0.00000000
   3           12     -453.6582477185     0.00000000
   4           12     -453.6192502479     0.00000000
   5           12     -453.6065830041     0.00000000
   6           12     -453.6015910636     0.00000000
   7           12     -453.5953743308     0.00000000
   8           12     -453.5603771637     0.00000001
   9           12     -453.5424675164     0.00000236
  10           12     -453.5414881001     0.00000293

 STATE      ITERATION      ENERGY         RESIDUE NORM
   1           13     -453.8727176792     0.00000000
   2           13     -453.6661663921     0.00000000
   3           13     -453.6582477185     0.00000000
   4           13     -453.6192502479     0.00000000
   5           13     -453.6065830041     0.00000000
   6           13     -453.6015910636     0.00000000
   7           13     -453.5953743308     0.00000000
   8           13     -453.5603771637     0.00000000
   9           13     -453.5424675164     0.00000042
  10           13     -453.5414881001     0.00000052

 STATE      ITERATION      ENERGY         RESIDUE NORM
   1           14     -453.8727176792     0.00000000
   2           14     -453.6661663921     0.00000000
   3           14     -453.6582477185     0.00000000
   4           14     -453.6192502479     0.00000000
   5           14     -453.6065830041     0.00000000
   6           14     -453.6015910636     0.00000000
   7           14     -453.5953743308     0.00000000
   8           14     -453.5603771637     0.00000000
   9           14     -453.5424675164     0.00000007
  10           14     -453.5414881001     0.00000009

   -------------------------------------------------
    MIXED-REFERENCE SPIN-FLIP CALCULATION CONVERGED
   -------------------------------------------------

 NUMBER OF USED VECTORS / MAX = 124 / 500
 NUMBER OF ITERATIONS   / MAX =  14 / 200
 NUMBER OF SINGLE EXCITATIONS =  3909
 NUMBER OF ATOMIC ORBITALS    = 147

     -----------------------------------
     SPIN-ADAPTED SPIN-FLIP EXCITATIONS
     -----------------------------------

 STATE #   1  ENERGY =   -3.265472 EV
 SYMMETRY OF STATE   =    A   
 S-SQUARED           =    0.0000
        DRF    COEF         OCC       VIR 
        ---    ----       ------    ------
         33  0.064769        33  ->    33
         34 -0.987209        34  ->    33
         67 -0.070888        33  ->    34
        101  0.060712        34  ->    35

 STATE #   2  ENERGY =    2.355074 EV
 SYMMETRY OF STATE   =    A   
 S-SQUARED           =    0.0000
        DRF    COEF         OCC       VIR 
        ---    ----       ------    ------
         23 -0.902822        23  ->    33
         32  0.279603        32  ->    33
         57  0.245162        23  ->    34
         66 -0.125447        32  ->    34
         90 -0.120728        23  ->    35

 STATE #   3  ENERGY =    2.570553 EV
 SYMMETRY OF STATE   =    A   
 S-SQUARED           =    0.0000
        DRF    COEF         OCC       VIR 
        ---    ----       ------    ------
         24 -0.064987        24  ->    33
         33 -0.977656        33  ->    33
         34 -0.076617        34  ->    33
         64 -0.060384        30  ->    34
         98 -0.074518        31  ->    35
        101 -0.079480        34  ->    35

 STATE #   4  ENERGY =    3.631728 EV
 SYMMETRY OF STATE   =    A   
 S-SQUARED           =    0.0000
        DRF    COEF         OCC       VIR 
        ---    ----       ------    ------
         27 -0.112600        27  ->    33
         31 -0.917246        31  ->    33
         58  0.056473        24  ->    34
         61  0.119360        27  ->    34
         64 -0.075927        30  ->    34
         65  0.209580        31  ->    34
         67 -0.054287        33  ->    34
         94 -0.054348        27  ->    35
         98 -0.129759        31  ->    35
        100 -0.087229        33  ->    35
        101 -0.186940        34  ->    35

 STATE #   5  ENERGY =    3.976421 EV
 SYMMETRY OF STATE   =    A   
 S-SQUARED           =    0.0000
        DRF    COEF         OCC       VIR 
        ---    ----       ------    ------
         23 -0.293845        23  ->    33
         26  0.056781        26  ->    33
         29  0.053433        29  ->    33
         32 -0.905662        32  ->    33
         57 -0.113179        23  ->    34
         66 -0.091992        32  ->    34
         90 -0.106556        23  ->    35
         99 -0.201805        32  ->    35

 STATE #   6  ENERGY =    4.112259 EV
 SYMMETRY OF STATE   =    A   
 S-SQUARED           =    0.0000
        DRF    COEF         OCC       VIR 
        ---    ----       ------    ------
         24 -0.056232        24  ->    33
         27 -0.065111        27  ->    33
         31  0.204909        31  ->    33
         33  0.099320        33  ->    33
         34 -0.055224        34  ->    33
        101 -0.935127        34  ->    35
        237 -0.148462        34  ->    39
        338 -0.054616        33  ->    42
        339  0.132832        34  ->    42

 STATE #   7  ENERGY =    4.281424 EV
 SYMMETRY OF STATE   =    A   
 S-SQUARED           =    0.0000
        DRF    COEF         OCC       VIR 
        ---    ----       ------    ------
        134  0.107618        33  ->    36
        135  0.958223        34  ->    36
        169 -0.129630        34  ->    37
        203 -0.088666        34  ->    38
        271  0.106863        34  ->    40
        305 -0.126199        34  ->    41

 STATE #   8  ENERGY =    5.233746 EV
 SYMMETRY OF STATE   =    A   
 S-SQUARED           =    0.0000
        DRF    COEF         OCC       VIR 
        ---    ----       ------    ------
         21  0.174428        21  ->    33
         24 -0.143488        24  ->    33
         30  0.777560        30  ->    33
         61  0.164801        27  ->    34
         64  0.145442        30  ->    34
         65  0.087823        31  ->    34
         67  0.057962        33  ->    34
         97  0.063482        30  ->    35
        100  0.328127        33  ->    35
        101  0.135487        34  ->    35
        237 -0.300032        34  ->    39
        339  0.198047        34  ->    42

 STATE #   9  ENERGY =    5.721092 EV
 SYMMETRY OF STATE   =    A   
 S-SQUARED           =    0.0000
        DRF    COEF         OCC       VIR 
        ---    ----       ------    ------
         18 -0.057816        18  ->    33
         23  0.059864        23  ->    33
         26  0.165418        26  ->    33
         28 -0.293124        28  ->    33
         29  0.470674        29  ->    33
         57  0.184867        23  ->    34
         63 -0.050337        29  ->    34
         90 -0.099364        23  ->    35
         99  0.100145        32  ->    35
        135 -0.139090        34  ->    36
        169 -0.682999        34  ->    37
        271  0.234703        34  ->    40
        305 -0.132628        34  ->    41
        328  0.059011        23  ->    42
        441 -0.069456        34  ->    45

 STATE #  10  ENERGY =    5.747743 EV
 SYMMETRY OF STATE   =    A   
 S-SQUARED           =    0.0000
        DRF    COEF         OCC       VIR 
        ---    ----       ------    ------
         18  0.057823        18  ->    33
         23 -0.072326        23  ->    33
         25  0.076836        25  ->    33
         26 -0.138783        26  ->    33
         28  0.425986        28  ->    33
         29 -0.518474        29  ->    33
         57 -0.204577        23  ->    34
         63  0.062966        29  ->    34
         90  0.106899        23  ->    35
         99 -0.122878        32  ->    35
        135 -0.090314        34  ->    36
        169 -0.596470        34  ->    37
        226  0.059158        23  ->    39
        271  0.173283        34  ->    40
        305 -0.086232        34  ->    41
        328 -0.067272        23  ->    42
        441 -0.075971        34  ->    45

          ----------------------------
          SUMMARY OF MRSF-DFT RESULTS
          ----------------------------

   STATE             ENERGY     EXCITATION      <S^2>    TRANSITION DIPOLE, A.U.  OSCILLATOR
                    HARTREE         EV                      X        Y        Z    STRENGTH

 1 NEGATIVE ROOT(S) FOUND.
   1  A         -453.8727176792   -3.265        0.0000   0.0000   0.0000   0.0000   0.0000
   0  A         -453.7527137901    0.000               (REFERENCE STATE)
   2  A         -453.6661663921    2.355        0.0000  -0.0015  -0.0004   0.0992   0.0014
   3  A         -453.6582477185    2.571        0.0000   0.1030   1.5363   0.0009   0.3390
   4  A         -453.6192502479    3.632        0.0000  -0.4184  -1.5318  -0.0016   0.4261
   5  A         -453.6065830041    3.976        0.0000   0.0116   0.0107  -0.0459   0.0004
   6  A         -453.6015910636    4.112        0.0000  -1.7033  -0.4444  -0.0007   0.5601
   7  A         -453.5953743308    4.281        0.0000   0.0297   0.0110   0.0003   0.0002
   8  A         -453.5603771637    5.234        0.0000  -0.6890   0.1106   0.0008   0.1014
   9  A         -453.5424675164    5.721        0.0000  -0.0041   0.0064  -0.0669   0.0010
  10  A         -453.5414881001    5.748        0.0000  -0.0038   0.0064  -0.1330   0.0039
  
 TRANSITION        EXCITATION            TRANSITION DIPOLE, A.U.     OSCILLATOR
                       EV              X       Y       Z       DIP    STRENGTH

  1  ->  2           5.621          0.0024  0.0182  0.1085   0.1100    0.0017
  1  ->  3           5.836          0.1622  2.1621  0.0013   2.1682    0.6721
  1  ->  4           6.897         -0.1908 -0.2938  0.0013   0.3503    0.0207
  1  ->  5           7.242          0.0033  0.0037 -0.0259   0.0264    0.0001
  1  ->  6           7.378         -1.3330 -0.0776 -0.0003   1.3353    0.3223
  1  ->  7           7.547          0.0181  0.0015  0.0133   0.0225    0.0001
  1  ->  8           8.499         -0.5440  0.0442 -0.0038   0.5458    0.0620
  1  ->  9           8.987         -0.0108 -0.0064  0.1385   0.1391    0.0043
  1  -> 10           9.013         -0.0118 -0.0024  0.0003   0.0121    0.0000
  2  ->  3           0.215         -0.0042  0.0229 -0.0162   0.0284    0.0000
  2  ->  4           1.277          0.0074 -0.0240 -0.0486   0.0547    0.0001
  2  ->  5           1.621          0.6188  0.3948  0.0009   0.7340    0.0214
  2  ->  6           1.757         -0.0030  0.0168  0.0208   0.0269    0.0000
  2  ->  7           1.926         -0.0301 -0.0249 -0.0007   0.0391    0.0001
  2  ->  8           2.879         -0.0095 -0.0116 -0.0132   0.0200    0.0000
  2  ->  9           3.366          0.1228 -0.2173 -0.0004   0.2496    0.0051
  2  -> 10           3.393         -0.1107  0.2283  0.0001   0.2538    0.0054
  3  ->  4           1.061          0.6682  0.6979  0.0015   0.9663    0.0243
  3  ->  5           1.406         -0.0101 -0.0197 -0.0277   0.0355    0.0000
  3  ->  6           1.542         -0.5419  0.9667 -0.0006   1.1082    0.0464
  3  ->  7           1.711          0.0047 -0.0099 -0.0439   0.0452    0.0001
  3  ->  8           2.663         -0.8312 -0.9051 -0.0013   1.2289    0.0985
  3  ->  9           3.151         -0.0294  0.0252 -0.0002   0.0387    0.0001
  3  -> 10           3.177         -0.0274  0.0158 -0.0190   0.0369    0.0001
  4  ->  5           0.345          0.0134  0.0109  0.0427   0.0460    0.0000
  4  ->  6           0.481         -0.8633 -0.0744  0.0015   0.8665    0.0088
  4  ->  7           0.650          0.0134 -0.0016 -0.0140   0.0194    0.0000
  4  ->  8           1.602          0.1437 -0.2793 -0.0005   0.3141    0.0039
  4  ->  9           2.089          0.0087  0.0132  0.0155   0.0221    0.0000
  4  -> 10           2.116          0.0109  0.0131 -0.0446   0.0477    0.0001
  5  ->  6           0.136          0.0329  0.0069 -0.0174   0.0378    0.0000
  5  ->  7           0.305         -0.1581 -0.2361  0.0003   0.2842    0.0006
  5  ->  8           1.257         -0.0160 -0.0119  0.0332   0.0387    0.0000
  5  ->  9           1.745         -0.4954 -0.2013 -0.0001   0.5347    0.0122
  5  -> 10           1.771          0.5748  0.2140  0.0017   0.6134    0.0163
  6  ->  7           0.169          0.0353 -0.0508 -0.0485   0.0786    0.0000
  6  ->  8           1.121          0.6883  0.1028  0.0004   0.6959    0.0133
  6  ->  9           1.609          0.0685  0.0559 -0.0809   0.1199    0.0006
  6  -> 10           1.635          0.0648  0.0481 -0.0956   0.1251    0.0006
  7  ->  8           0.952         -0.0132  0.0135  0.0139   0.0235    0.0000
  7  ->  9           1.440          0.7191 -0.0122 -0.0006   0.7192    0.0182
  7  -> 10           1.466          0.5135 -0.1492  0.0001   0.5347    0.0103
  8  ->  9           0.487          0.0167  0.0039 -0.0810   0.0828    0.0001
  8  -> 10           0.514          0.0155  0.0008 -0.0938   0.0950    0.0001
  9  -> 10           0.027         -0.9447  0.4327  0.0041   1.0391    0.0007
 
 SELECTING EXCITED STATE IROOT=   1 AT E=     -453.8727176792
 AS THE STATE OF INTEREST.

 ..... DONE WITH MRSFDFT EXCITATION ENERGIES .....
 CPU     0: STEP CPU TIME=   173.93 TOTAL CPU TIME=        183.5 (      3.1 MIN)
 TOTAL WALL CLOCK TIME=        198.1 SECONDS, CPU UTILIZATION IS    92.64%
              16931038  WORDS OF DYNAMIC MEMORY USED
 EXECUTION OF GAMESS TERMINATED NORMALLY Wed Apr 12 08:28:08 2023
 DDI: 263640 bytes (0.3 MB / 0 MWords) used by master data server.

 ----------------------------------------
 CPU timing information for all processes
 ========================================
 0: 177.240 + 6.262 = 183.503
 1: 177.103 + 3.785 = 180.889
 2: 176.690 + 5.299 = 181.990
 3: 177.816 + 3.971 = 181.787
 4: 177.746 + 6.647 = 184.393
 5: 176.236 + 3.959 = 180.196
 6: 177.158 + 5.534 = 182.693
 7: 176.754 + 3.538 = 180.293
 8: 175.902 + 5.787 = 181.689
 9: 175.764 + 2.857 = 178.621
 10: 175.308 + 4.572 = 179.880
 11: 176.296 + 2.945 = 179.241
 12: 175.951 + 5.606 = 181.558
 13: 174.716 + 3.03 = 177.719
 14: 174.486 + 4.587 = 179.74
 15: 175.705 + 2.989 = 178.694
 ----------------------------------------
 ddikick.x: exited gracefully.
