
 Distributed Data Interface kickoff program.
 Initiating 16 compute processes on 1 nodes to run the following command:
 /bighome/k.komarov/projects/gms-mrsf-uhf/gamess.umrsf.x uhf_mrsf_thymine_631gd_bhhlyp_0 

          ******************************************************
          *         GAMESS VERSION = 14 FEB 2018 (R1)         *
          *             FROM IOWA STATE UNIVERSITY             *
          * M.W.SCHMIDT, K.K.BALDRIDGE, J.A.BOATZ, S.T.ELBERT, *
          *   M.S.GORDON, J.H.JENSEN, S.KOSEKI, N.MATSUNAGA,   *
          *          K.A.NGUYEN, S.J.SU, T.L.WINDUS,           *
          *       TOGETHER WITH M.DUPUIS, J.A.MONTGOMERY       *
          *         J.COMPUT.CHEM.  14, 1347-1363(1993)        *
          **************** 64 BIT INTEL VERSION ****************

  SINCE 1993, STUDENTS AND POSTDOCS WORKING AT IOWA STATE UNIVERSITY
  AND ALSO IN THEIR VARIOUS JOBS AFTER LEAVING ISU HAVE MADE IMPORTANT
  CONTRIBUTIONS TO THE CODE:
     IVANA ADAMOVIC, CHRISTINE AIKENS, YURI ALEXEEV, POOJA ARORA,
     ANDREY ASADCHEV, ROB BELL, PRADIPTA BANDYOPADHYAY, JONATHAN BENTZ,
     BRETT BODE, KURT BRORSEN, CALEB CARLIN, GALINA CHABAN, WEI CHEN,
     CHEOL HO CHOI, PAUL DAY, ALBERT DEFUSCO, NUWAN DESILVA, TIM DUDLEY,
     DMITRI FEDOROV, ALEX FINDLATER, GRAHAM FLETCHER, MARK FREITAG,
     KURT GLAESEMANN, ANASTASIA GUININA,
     DAN KEMP, GRANT MERRILL, NORIYUKI MINEZAWA, JONATHAN MULLIN,
     TAKESHI NAGATA, SEAN NEDD, HEATHER NETZLOFF, BOSILJKA NJEGIC, RYAN OLSON,
     MIKE PAK, BUU PHAM,
     SPENCER PRUITT, LUKE ROSKOP, JIM SHOEMAKER, LYUDMILA SLIPCHENKO,
     TONY SMITH, SAROM SOK LEANG, JIE SONG, TETSUYA TAKETSUGU, SIMON WEBB,
     PENG XU, SOOHAENG YOO, FEDERICO ZAHARIEV

  ADDITIONAL CODE HAS BEEN PROVIDED BY COLLABORATORS IN OTHER GROUPS:
     IOWA STATE UNIVERSITY:
          JOE IVANIC, AARON WEST, LAIMUTIS BYTAUTAS, KLAUS RUEDENBERG
     UNIVERSITY OF TOKYO: KIMIHIKO HIRAO, TAKAHITO NAKAJIMA,
          TAKAO TSUNEDA, MUNEAKI KAMIYA, SUSUMU YANAGISAWA,
          KIYOSHI YAGI, MAHITO CHIBA, SEIKEN TOKURA, NAOAKI KAWAKAMI
     UNIVERSITY OF AARHUS: FRANK JENSEN
     UNIVERSITY OF IOWA: VISVALDAS KAIRYS, HUI LI
     NATIONAL INST. OF STANDARDS AND TECHNOLOGY: WALT STEVENS, DAVID GARMER
     UNIVERSITY OF PISA: BENEDETTA MENNUCCI, JACOPO TOMASI
     UNIVERSITY OF MEMPHIS: HENRY KURTZ, PRAKASHAN KORAMBATH
     UNIVERSITY OF ALBERTA: TOBY ZENG, MARIUSZ KLOBUKOWSKI
     UNIVERSITY OF NEW ENGLAND: MARK SPACKMAN
     MIE UNIVERSITY: HIROAKI UMEDA
     NAT. INST. OF ADVANCED INDUSTRIAL SCIENCE AND TECHNOLOGY: KAZUO KITAURA
     MICHIGAN STATE UNIVERSITY:
          KAROL KOWALSKI, MARTA WLOCH, JEFFREY GOUR, JESSE LUTZ,
          WEI LI, PIOTR PIECUCH
     UNIVERSITY OF SILESIA: MONIKA MUSIAL, STANISLAW KUCHARSKI
     FACULTES UNIVERSITAIRES NOTRE-DAME DE LA PAIX:
          OLIVIER QUINET, BENOIT CHAMPAGNE
     UNIVERSITY OF CALIFORNIA - SANTA BARBARA: BERNARD KIRTMAN
     INSTITUTE FOR MOLECULAR SCIENCE:
          KAZUYA ISHIMURA, MICHIO KATOUDA, AND SHIGERU NAGASE
     UNIVERSITY OF NOTRE DAME: ANNA POMOGAEVA, DAN CHIPMAN
     KYUSHU UNIVERSITY:
          HARUYUKI NAKANO,
          FENG LONG GU, JACEK KORCHOWIEC, MARCIN MAKOWSKI, AND YURIKO AOKI,
          HIROTOSHI MORI AND EISAKU MIYOSHI
     PENNSYLVANIA STATE UNIVERSITY:
          TZVETELIN IORDANOV, CHET SWALINA, JONATHAN SKONE,
          SHARON HAMMES-SCHIFFER
     WASEDA UNIVERSITY:
          MASATO KOBAYASHI, TOMOKO AKAMA, TSUGUKI TOUMA,
          TAKESHI YOSHIKAWA, YASUHIRO IKABATA, JUNJI SEINO,
          YUYA NAKAJIMA, HIROMI NAKAI
     NANJING UNIVERSITY: SHUHUA LI
     UNIVERSITY OF NEBRASKA:
          PEIFENG SU, DEJUN SI, NANDUN THELLAMUREGE, YALI WANG, HUI LI
     UNIVERSITY OF ZURICH: ROBERTO PEVERATI, KIM BALDRIDGE
     N. COPERNICUS UNIVERSITY AND JACKSON STATE UNIVERSITY:
          MARIA BARYSZ
     UNIVERSITY OF COPENHAGEN: Jimmy Kromann, CASPER STEINMANN
     TOKYO INSTITUTE OF TECHNOLOGY: HIROYA NAKATA
     NAGOYA UNIVERSITY: YOSHIO NISHIMOTO, STEPHAN IRLE
     MOSCOW STATE UNIVERSITY: VLADIMIR MIRONOV


 PARALLEL VERSION RUNNING ON       16 PROCESSORS IN        1 NODES.

 EXECUTION OF GAMESS BEGUN Wed Apr 12 08:24:50 2023

            ECHO OF THE FIRST FEW INPUT CARDS -
 INPUT CARD> $contrl runtyp=energy $end                                                     
 INPUT CARD> $tddft iroot=1 $end                                                            
 INPUT CARD> $contrl scftyp=uhf mult=3 $end                                                 
 INPUT CARD> $scf couple=.t. alpha(1)=0.5,0.5,0.5 beta(1)=0.5,0.5,0.5 $end                  
 INPUT CARD> $basis gbasis=n31 ngauss=6 ndfunc=1 $end                                       
 INPUT CARD> $contrl dfttyp=bhhlyp $end                                                     
 INPUT CARD> $contrl tddft=spnflp $end                                                      
 INPUT CARD> $tddft nstate=10 iroot=1 tammd=.t. mult=1 mrsfs=.t. $end                       
 INPUT CARD> $contrl coord=unique icharg=0 maxit=200 $end                                   
 INPUT CARD> $scf dirscf=.t. diis=.t. soscf=.f. fdiff=.f. damp=.f. shift=.f. $end           
 INPUT CARD> $system timlim=999999100 mwords=500 kdiag=4 $end                               
 INPUT CARD> $data                                                                          
 INPUT CARD> geodesic pathway 0                                                             
 INPUT CARD> C1                                                                             
 INPUT CARD> C	 6.0 -0.580369172507 1.078755852960 0.001119263233                           
 INPUT CARD> C	 6.0 0.666900910393 0.325495790260 0.000268747433                            
 INPUT CARD> C	 6.0 0.593768648893 -1.013816358440 -0.000837150967                          
 INPUT CARD> C	 6.0 -1.826905516207 -1.071229333040 -0.000101704667                         
 INPUT CARD> C	 6.0 1.946597038593 1.093416397760 -0.000020377667                           
 INPUT CARD> N	 7.0 -0.599371963307 -1.690159487640 -0.001118127167                         
 INPUT CARD> N	 7.0 -1.734485655007 0.298449101660 0.001046679933                           
 INPUT CARD> O	 8.0 -2.868484068907 -1.675606726340 -0.000279501267                         
 INPUT CARD> O	 8.0 -0.658272375107 2.284451987560 0.001933641533                           
 INPUT CARD> H	 1.0 -0.626926646907 -2.690866655240 -0.001720690067                         
 INPUT CARD> H	 1.0 -2.607539070807 0.794820119460 0.001827188033                           
 INPUT CARD> H	 1.0 2.802984573193 0.425577247360 0.006437407233                            
 INPUT CARD> H	 1.0 2.007848689993 1.743900726060 0.868815610833                            
 INPUT CARD> H	 1.0 2.013484983793 1.734194391060 -0.875639177867                           
 INPUT CARD> H	 1.0 1.470769623893 -1.637383053440 -0.001731808567                          
 INPUT CARD> $end                                                                           
 INPUT CARD> $guess guess=moread $end                                                       
 INPUT CARD> $scf rstrct=.t. $end                                                           
 INPUT CARD> $guess guess=moread norb=  147 norder=1                                        
 INPUT CARD> jorder(1)=   1,   2,   3,   4,   5,   6,   8,   7,   9,  10,                   
 INPUT CARD>  11,  12,  13,  14,  15,  17,  16,  19,  18,  20,                              
 INPUT CARD>  22,  21,  33,  24,  23,  25,  26,  27,  28,  29,                              
 INPUT CARD>  30,  31,  32,  34,  35,  36,  37,  38,  40,  39,                              
 INPUT CARD>  41,  42,  44,  43,  45,  46,  47,  48,  49,  50,                              
 INPUT CARD>  51,  52,  53,  54,  55,  56,  57,  58,  59,  60,                              
 INPUT CARD>  61,  62,  63,  64,  65,  66,  67,  68,  69,  70,                              
 INPUT CARD>  72,  71,  73,  74,  75,  76,  77,  78,  80,  79,                              
 INPUT CARD>  81,  82,  83,  84,  85,  86,  87,  88,  89,  90,                              
 INPUT CARD>  91,  92,  93,  94,  95,  96,  97,  98,  99, 100,                              
 INPUT CARD> 101, 102, 103, 104, 105, 106, 107, 108, 109, 110,                              
 INPUT CARD> 112, 111, 113, 114, 116, 115, 117, 118, 119, 120,                              
 INPUT CARD> 121, 122, 123, 124, 125, 126, 127, 129, 128, 130,                              
 INPUT CARD> 131, 132, 133, 134, 135, 136, 137, 138, 139, 140,                              
 INPUT CARD> 141, 142, 143, 144, 145, 146, 147                                              
 INPUT CARD> $end                                                                           
 INPUT CARD> $VEC                                                                           
  500000000 WORDS OF MEMORY AVAILABLE

     BASIS OPTIONS
     -------------
     GBASIS=N31          IGAUSS=       6      POLAR=POPN31  
     NDFUNC=       1     NFFUNC=       0     DIFFSP=       F
     NPFUNC=       0      DIFFS=       F     BASNAM=        


     RUN TITLE
     ---------
  geodesic pathway 0                                                             

 THE POINT GROUP OF THE MOLECULE IS C1      
 THE ORDER OF THE PRINCIPAL AXIS IS     0

 ATOM      ATOMIC                      COORDINATES (BOHR)
           CHARGE         X                   Y                   Z
 C           6.0    -1.0967387078        2.0385529697        0.0021151008
 C           6.0     1.2602599816        0.6150978537        0.0005078590
 C           6.0     1.1220600465       -1.9158351193       -0.0015819859
 C           6.0    -3.4523508311       -2.0243299095       -0.0001921940
 C           6.0     3.6785350115        2.0662573822       -0.0000385082
 N           7.0    -1.1326487754       -3.1939383072       -0.0021129540
 N           7.0    -3.2777026176        0.5639870234        0.0019779383
 O           8.0    -5.4206488904       -3.1664375760       -0.0005281808
 O           8.0    -1.2439544142        4.3169882886        0.0036540527
 H           1.0    -1.1847195771       -5.0850006479       -0.0032516327
 H           1.0    -4.9275343461        1.5019922353        0.0034528847
 H           1.0     5.2968727911        0.8042243841        0.0121649357
 H           1.0     3.7942838489        3.2954945220        1.6418234383
 H           1.0     3.8049348998        3.2771522085       -1.6547181103
 H           1.0     2.7793515802       -3.0942053079       -0.0032726437

          INTERNUCLEAR DISTANCES (ANGS.)
          ------------------------------

                1 C          2 C          3 C          4 C          5 C     

   1 C       0.0000000    1.4570807 *  2.3994712 *  2.4852144 *  2.5270090 *
   2 C       1.4570807 *  0.0000000    1.3413078 *  2.8583057 *  1.4924223 *
   3 C       2.3994712 *  1.3413078 *  0.0000000    2.4213550 *  2.5041117 *
   4 C       2.4852144 *  2.8583057 *  2.4213550 *  0.0000000    4.3502888  
   5 C       2.5270090 *  1.4924223 *  2.5041117 *  4.3502888    0.0000000  
   6 N       2.7689815 *  2.3804023 *  1.3715045 *  1.3747415 *  3.7723009  
   7 N       1.3931488 *  2.4015390 *  2.6726040 *  1.3727934 *  3.7659453  
   8 O       3.5807799    4.0624326    3.5249341    1.2042250 *  5.5545022  
   9 O       1.2082106 *  2.3650785 *  3.5279156    3.5533512    2.8642476 *
  10 H       3.7699111    3.2821390    2.0742699 *  2.0157324 *  4.5764424  
  11 H       2.0469582 *  3.3079034    3.6768933    2.0227538 *  4.5639149  
  12 H       3.4458313    2.1384358 *  2.6367673 *  4.8658355    1.0860251 *
  13 H       2.8096595 *  2.1364426 *  3.2188386    4.8358365    1.0870867 *
  14 H       2.8153835 *  2.1365709 *  3.2144107    4.8358626    1.0870965 *
  15 H       3.4036141    2.1211087 *  1.0760887 *  3.3459220    2.7719452 *

                6 N          7 N          8 O          9 O         10 H     

   1 C       2.7689815 *  1.3931488 *  3.5807799    1.2082106 *  3.7699111  
   2 C       2.3804023 *  2.4015390 *  4.0624326    2.3650785 *  3.2821390  
   3 C       1.3715045 *  2.6726040 *  3.5249341    3.5279156    2.0742699 *
   4 C       1.3747415 *  1.3727934 *  1.2042250 *  3.5533512    2.0157324 *
   5 C       3.7723009    3.7659453    5.5545022    2.8642476 *  4.5764424  
   6 N       0.0000000    2.2897711 *  2.2691589 *  3.9750491    1.0010866 *
   7 N       2.2897711 *  0.0000000    2.2765875 *  2.2588588 *  3.1878995  
   8 O       2.2691589 *  2.2765875 *  0.0000000    4.5350971    2.4607589 *
   9 O       3.9750491    2.2588588 *  4.5350971    0.0000000    4.9754187  
  10 H       1.0010866 *  3.1878995    2.4607589 *  4.9754187    0.0000000  
  11 H       3.1949753    1.0042943 *  2.4841710 *  2.4532924 *  4.0090960  
  12 H       4.0065483    4.5392540    6.0481878    3.9288338    4.6342831  
  13 H       4.3985400    4.1045608    6.0188852    2.8551500 *  5.2313513  
  14 H       4.3952256    4.1081902    6.0188554    2.8655200 *  5.2265354  
  15 H       2.0708143 *  3.7444780    4.3394223    4.4624683    2.3473724 *

               11 H         12 H         13 H         14 H         15 H     

   1 C       2.0469582 *  3.4458313    2.8096595 *  2.8153835 *  3.4036141  
   2 C       3.3079034    2.1384358 *  2.1364426 *  2.1365709 *  2.1211087 *
   3 C       3.6768933    2.6367673 *  3.2188386    3.2144107    1.0760887 *
   4 C       2.0227538 *  4.8658355    4.8358365    4.8358626    3.3459220  
   5 C       4.5639149    1.0860251 *  1.0870867 *  1.0870965 *  2.7719452 *
   6 N       3.1949753    4.0065483    4.3985400    4.3952256    2.0708143 *
   7 N       1.0042943 *  4.5392540    4.1045608    4.1081902    3.7444780  
   8 O       2.4841710 *  6.0481878    6.0188852    6.0188554    4.3394223  
   9 O       2.4532924 *  3.9288338    2.8551500 *  2.8655200 *  4.4624683  
  10 H       4.0090960    4.6342831    5.2313513    5.2265354    2.3473724 *
  11 H       0.0000000    5.4231105    4.7910570    4.7964815    4.7484973  
  12 H       5.4231105    0.0000000    1.7646286 *  1.7646097 *  2.4557420 *
  13 H       4.7910570    1.7646286 *  0.0000000    1.7444909 *  3.5326175  
  14 H       4.7964815    1.7646097 *  1.7444909 *  0.0000000    3.5250232  
  15 H       4.7484973    2.4557420 *  3.5326175    3.5250232    0.0000000  

  * ... LESS THAN  3.000


     ATOMIC BASIS SET
     ----------------
 THE CONTRACTED PRIMITIVE FUNCTIONS HAVE BEEN UNNORMALIZED
 THE CONTRACTED BASIS FUNCTIONS ARE NOW NORMALIZED TO UNITY

  SHELL TYPE  PRIMITIVE        EXPONENT          CONTRACTION COEFFICIENT(S)

 C         

      1   S       1          3047.5248800    0.001834737132
      1   S       2           457.3695180    0.014037322813
      1   S       3           103.9486850    0.068842622264
      1   S       4            29.2101553    0.232184443216
      1   S       5             9.2866630    0.467941348435
      1   S       6             3.1639270    0.362311985337

      2   L       7             7.8682723   -0.119332419775    0.068999066591
      2   L       8             1.8812885   -0.160854151696    0.316423960957
      2   L       9             0.5442493    1.143456437840    0.744308290898

      3   L      10             0.1687145    1.000000000000    1.000000000000

      4   D      11             0.8000000    1.000000000000

 C         

      5   S      12          3047.5248800    0.001834737132
      5   S      13           457.3695180    0.014037322813
      5   S      14           103.9486850    0.068842622264
      5   S      15            29.2101553    0.232184443216
      5   S      16             9.2866630    0.467941348435
      5   S      17             3.1639270    0.362311985337

      6   L      18             7.8682723   -0.119332419775    0.068999066591
      6   L      19             1.8812885   -0.160854151696    0.316423960957
      6   L      20             0.5442493    1.143456437840    0.744308290898

      7   L      21             0.1687145    1.000000000000    1.000000000000

      8   D      22             0.8000000    1.000000000000

 C         

      9   S      23          3047.5248800    0.001834737132
      9   S      24           457.3695180    0.014037322813
      9   S      25           103.9486850    0.068842622264
      9   S      26            29.2101553    0.232184443216
      9   S      27             9.2866630    0.467941348435
      9   S      28             3.1639270    0.362311985337

     10   L      29             7.8682723   -0.119332419775    0.068999066591
     10   L      30             1.8812885   -0.160854151696    0.316423960957
     10   L      31             0.5442493    1.143456437840    0.744308290898

     11   L      32             0.1687145    1.000000000000    1.000000000000

     12   D      33             0.8000000    1.000000000000

 C         

     13   S      34          3047.5248800    0.001834737132
     13   S      35           457.3695180    0.014037322813
     13   S      36           103.9486850    0.068842622264
     13   S      37            29.2101553    0.232184443216
     13   S      38             9.2866630    0.467941348435
     13   S      39             3.1639270    0.362311985337

     14   L      40             7.8682723   -0.119332419775    0.068999066591
     14   L      41             1.8812885   -0.160854151696    0.316423960957
     14   L      42             0.5442493    1.143456437840    0.744308290898

     15   L      43             0.1687145    1.000000000000    1.000000000000

     16   D      44             0.8000000    1.000000000000

 C         

     17   S      45          3047.5248800    0.001834737132
     17   S      46           457.3695180    0.014037322813
     17   S      47           103.9486850    0.068842622264
     17   S      48            29.2101553    0.232184443216
     17   S      49             9.2866630    0.467941348435
     17   S      50             3.1639270    0.362311985337

     18   L      51             7.8682723   -0.119332419775    0.068999066591
     18   L      52             1.8812885   -0.160854151696    0.316423960957
     18   L      53             0.5442493    1.143456437840    0.744308290898

     19   L      54             0.1687145    1.000000000000    1.000000000000

     20   D      55             0.8000000    1.000000000000

 N         

     21   S      56          4173.5114600    0.001834772160
     21   S      57           627.4579110    0.013994627002
     21   S      58           142.9020930    0.068586551812
     21   S      59            40.2343293    0.232240873040
     21   S      60            12.8202129    0.469069948082
     21   S      61             4.3904370    0.360455199063

     22   L      62            11.6263619   -0.114961181702    0.067579743878
     22   L      63             2.7162798   -0.169117478561    0.323907295893
     22   L      64             0.7722184    1.145851947027    0.740895139755

     23   L      65             0.2120315    1.000000000000    1.000000000000

     24   D      66             0.8000000    1.000000000000

 N         

     25   S      67          4173.5114600    0.001834772160
     25   S      68           627.4579110    0.013994627002
     25   S      69           142.9020930    0.068586551812
     25   S      70            40.2343293    0.232240873040
     25   S      71            12.8202129    0.469069948082
     25   S      72             4.3904370    0.360455199063

     26   L      73            11.6263619   -0.114961181702    0.067579743878
     26   L      74             2.7162798   -0.169117478561    0.323907295893
     26   L      75             0.7722184    1.145851947027    0.740895139755

     27   L      76             0.2120315    1.000000000000    1.000000000000

     28   D      77             0.8000000    1.000000000000

 O         

     29   S      78          5484.6716600    0.001831074430
     29   S      79           825.2349460    0.013950172200
     29   S      80           188.0469580    0.068445078098
     29   S      81            52.9645000    0.232714335992
     29   S      82            16.8975704    0.470192897984
     29   S      83             5.7996353    0.358520852987

     30   L      84            15.5396162   -0.110777549525    0.070874268231
     30   L      85             3.5999336   -0.148026262701    0.339752839147
     30   L      86             1.0137618    1.130767015354    0.727158577316

     31   L      87             0.2700058    1.000000000000    1.000000000000

     32   D      88             0.8000000    1.000000000000

 O         

     33   S      89          5484.6716600    0.001831074430
     33   S      90           825.2349460    0.013950172200
     33   S      91           188.0469580    0.068445078098
     33   S      92            52.9645000    0.232714335992
     33   S      93            16.8975704    0.470192897984
     33   S      94             5.7996353    0.358520852987

     34   L      95            15.5396162   -0.110777549525    0.070874268231
     34   L      96             3.5999336   -0.148026262701    0.339752839147
     34   L      97             1.0137618    1.130767015354    0.727158577316

     35   L      98             0.2700058    1.000000000000    1.000000000000

     36   D      99             0.8000000    1.000000000000

 H         

     37   S     100            18.7311370    0.033494604338
     37   S     101             2.8253944    0.234726953484
     37   S     102             0.6401217    0.813757326146

     38   S     103             0.1612778    1.000000000000

 H         

     39   S     104            18.7311370    0.033494604338
     39   S     105             2.8253944    0.234726953484
     39   S     106             0.6401217    0.813757326146

     40   S     107             0.1612778    1.000000000000

 H         

     41   S     108            18.7311370    0.033494604338
     41   S     109             2.8253944    0.234726953484
     41   S     110             0.6401217    0.813757326146

     42   S     111             0.1612778    1.000000000000

 H         

     43   S     112            18.7311370    0.033494604338
     43   S     113             2.8253944    0.234726953484
     43   S     114             0.6401217    0.813757326146

     44   S     115             0.1612778    1.000000000000

 H         

     45   S     116            18.7311370    0.033494604338
     45   S     117             2.8253944    0.234726953484
     45   S     118             0.6401217    0.813757326146

     46   S     119             0.1612778    1.000000000000

 H         

     47   S     120            18.7311370    0.033494604338
     47   S     121             2.8253944    0.234726953484
     47   S     122             0.6401217    0.813757326146

     48   S     123             0.1612778    1.000000000000

 TOTAL NUMBER OF BASIS SET SHELLS             =   48
 NUMBER OF CARTESIAN GAUSSIAN BASIS FUNCTIONS =  147
 NUMBER OF ELECTRONS                          =   66
 CHARGE OF MOLECULE                           =    0
 SPIN MULTIPLICITY                            =    3
 NUMBER OF OCCUPIED ORBITALS (ALPHA)          =   34
 NUMBER OF OCCUPIED ORBITALS (BETA )          =   32
 TOTAL NUMBER OF ATOMS                        =   15
 THE NUCLEAR REPULSION ENERGY IS      442.1656567265

     LEBEDEV GRID-BASED DFT OPTIONS
     ------------------------------
     DFTTYP=BHHLYP  
     NRAD  =      96     NLEB  =     302
     NRAD0 =      24     NLEB0 =     110
     SWOFF =    5.00E-03 (PURE SCF -> DFT)
     SWITCH=    3.00E-04 (COARSE -> TIGHT GRID)
     THRESH=    0.00E+00 GTHRE=    1.00E+00

 GRIMME'S EMPIRICAL DISPERSION CORRECTION= F

     $CONTRL OPTIONS
     ---------------
 SCFTYP=UHF          RUNTYP=ENERGY       EXETYP=RUN     
 MPLEVL=       0     CITYP =NONE         CCTYP =NONE         VBTYP =NONE    
 DFTTYP=BHHLYP       TDDFT =SPNFLP  
 MULT  =       3     ICHARG=       0     NZVAR =       0     COORD =UNIQUE  
 PP    =NONE         RELWFN=NONE         LOCAL =NONE         NUMGRD=       F
 ISPHER=      -1     NOSYM =       0     MAXIT =     200     UNITS =ANGS    
 PLTORB=       F     MOLPLT=       F     AIMPAC=       F     FRIEND=        
 NPRINT=       7     IREST =       0     GEOM  =INPUT   
 NORMF =       0     NORMP =       0     ITOL  =      20     ICUT  =       9
 INTTYP=BEST         GRDTYP=BEST         QMTTOL= 1.0E-06

     $SYSTEM OPTIONS
     ---------------
  REPLICATED MEMORY=   500000000 WORDS (ON EVERY NODE).
 DISTRIBUTED MEMDDI=           0 MILLION WORDS IN AGGREGATE,
 MEMDDI DISTRIBUTED OVER  16 PROCESSORS IS           0 WORDS/PROCESSOR.
 TOTAL MEMORY REQUESTED ON EACH PROCESSOR=   500000000 WORDS.
 TIMLIM=   999999100.00 MINUTES, OR  694443.8 DAYS.
 PARALL= T  BALTYP=  DLB     KDIAG=    4  COREFL= F
 MXSEQ2=     300 MXSEQ3=     150  mem10=         0

          ----------------
          PROPERTIES INPUT
          ----------------

     MOMENTS            FIELD           POTENTIAL          DENSITY
 IEMOM =       1   IEFLD =       0   IEPOT =       0   IEDEN =       0
 WHERE =COMASS     WHERE =NUCLEI     WHERE =NUCLEI     WHERE =NUCLEI  
 OUTPUT=BOTH       OUTPUT=BOTH       OUTPUT=BOTH       OUTPUT=BOTH    
 IEMINT=       0   IEFINT=       0                     IEDINT=       0
                                                       MORB  =       0
          EXTRAPOLATION IN EFFECT
          RESTRICTION OF ORBITAL MIXING IN EFFECT
          DIIS IN EFFECT
          DIIS or SOSCF will be reset if energy rises
 ORBITAL PRINTING OPTION: NPREO=     1   147     2     1

     -------------------------------
     INTEGRAL TRANSFORMATION OPTIONS
     -------------------------------
     NWORD  =            0
     CUTOFF = 1.0E-09     MPTRAN =       0
     DIRTRF =       T     AOINTS =DUP     

          ----------------------
          INTEGRAL INPUT OPTIONS
          ----------------------
 NOPK  =       1 NORDER=       0 SCHWRZ=       T
  -- ERROR --
 MRSF-TDDFT NEED SCFTYP=ROHF AND TDDFT=SPNFLP IN $CONTRL

          ----------------------
          TDDFT INPUT PARAMETERS
          ----------------------
 NSTATE=      10  IROOT=       1   MULT=       1
 MAXVEC=      50 NTRIAL=       5 CNVTOL=  1.00E-07
 TDPRP =       F  TAMMD=       T    TPA=       F
 ALPHA =       F   BETA=       F  PFREQ=    0.00    0.00
   NRAD=      48   NLEB=     110

     ------------------------------------------
     THE POINT GROUP IS C1 , NAXIS= 0, ORDER= 1
     ------------------------------------------

     DIMENSIONS OF THE SYMMETRY SUBSPACES ARE
 A   =  147

 ..... DONE SETTING UP THE RUN .....
 CPU     0: STEP CPU TIME=     0.17 TOTAL CPU TIME=          0.2 (      0.0 MIN)
 TOTAL WALL CLOCK TIME=          0.3 SECONDS, CPU UTILIZATION IS    62.07%

          ********************
          1 ELECTRON INTEGRALS
          ********************
 ...... END OF ONE-ELECTRON INTEGRALS ......
 CPU     0: STEP CPU TIME=     0.00 TOTAL CPU TIME=          0.2 (      0.0 MIN)
 TOTAL WALL CLOCK TIME=          0.3 SECONDS, CPU UTILIZATION IS    60.00%

          -------------
          GUESS OPTIONS
          -------------
          GUESS =MOREAD            NORB  =     147          NORDER=       1
          MIX   =       F          PRTMO =       F          PUNMO =       F
          TOLZ  = 1.0E-08          TOLE  = 1.0E-05
          SYMDEN=       F          PURIFY=       F

 INITIAL GUESS ORBITALS GENERATED BY MOREAD   ROUTINE.

 SYMMETRIES FOR INITIAL GUESS ORBITALS FOLLOW.  ALPHA SET(S).
    34 ORBITALS ARE OCCUPIED (    9 CORE ORBITALS).
    10=A       11=A       12=A       13=A       14=A       15=A       16=A   
    17=A       18=A       19=A       20=A       21=A       22=A       23=A   
    24=A       25=A       26=A       27=A       28=A       29=A       30=A   
    31=A       32=A       33=A       34=A       35=A       36=A       37=A   
    38=A       39=A       40=A       41=A       42=A       43=A       44=A   

 SYMMETRIES FOR INITIAL GUESS ORBITALS FOLLOW.   BETA SET(S).
    32 ORBITALS ARE OCCUPIED (    9 CORE ORBITALS).
    10=A       11=A       12=A       13=A       14=A       15=A       16=A   
    17=A       18=A       19=A       20=A       21=A       22=A       23=A   
    24=A       25=A       26=A       27=A       28=A       29=A       30=A   
    31=A       32=A       33=A       34=A       35=A       36=A       37=A   
    38=A       39=A       40=A       41=A       42=A   
 ...... END OF INITIAL ORBITAL SELECTION ......
 CPU     0: STEP CPU TIME=     0.03 TOTAL CPU TIME=          0.2 (      0.0 MIN)
 TOTAL WALL CLOCK TIME=          0.4 SECONDS, CPU UTILIZATION IS    60.00%

                    ----------------------
                    AO INTEGRAL TECHNOLOGY
                    ----------------------
     S,P,L SHELL ROTATED AXIS INTEGRALS, REPROGRAMMED BY
        KAZUYA ISHIMURA (IMS) AND JOSE SIERRA (SYNSTAR).
     S,P,D,L SHELL ROTATED AXIS INTEGRALS PROGRAMMED BY
        KAZUYA ISHIMURA (INSTITUTE FOR MOLECULAR SCIENCE).
     S,P,D,F,G SHELL TO TOTAL QUARTET ANGULAR MOMENTUM SUM 5,
        ERIC PROGRAM BY GRAHAM FLETCHER (ELORET AND NASA ADVANCED
        SUPERCOMPUTING DIVISION, AMES RESEARCH CENTER).
     S,P,D,F,G,L SHELL GENERAL RYS QUADRATURE PROGRAMMED BY
        MICHEL DUPUIS (PACIFIC NORTHWEST NATIONAL LABORATORY).

          --------------------
          2 ELECTRON INTEGRALS
          --------------------

 DIRECT SCF METHOD SKIPS INTEGRAL STORAGE ON DISK.
 DIRECT TRANSFORMATION SKIPS AO INTEGRAL STORAGE ON DISK.
  ...... END OF TWO-ELECTRON INTEGRALS .....
 CPU     0: STEP CPU TIME=     0.01 TOTAL CPU TIME=          0.2 (      0.0 MIN)
 TOTAL WALL CLOCK TIME=          0.4 SECONDS, CPU UTILIZATION IS    62.86%

          ---------------------------
             U-BHHLYP SCF CALCULATION
          ---------------------------

     NUCLEAR ENERGY =       442.1656567265
     MAXIT =200     NPUNCH=  2     MULT=  3
     EXTRAP=T  DAMP=F  SHIFT=F  RSTRCT=T  DIIS=T  SOSCF=F
         DENSITY MATRIX CONVERGENCE THRESHOLD=  2.00E-06
     COARSE -> FINE DFT GRID SWITCH THRESHOLD=  3.00E-04 (SWITCH IN $DFT)
                   HF -> DFT SWITCH THRESHOLD=  0.00E+00 (SWOFF IN $DFT)
     MEMORY REQUIRED FOR UHF/ROHF ITERS=    807691 WORDS.

 DIRECT SCF CALCULATION, SCHWRZ=T   FDIFF=F
 SCHWARZ INEQUALITY OVERHEAD:     10648 INTEGRALS, T=        0.00

 DFT CODE IS SWITCHING FROM THE FINE GRID NRAD= 96,  NLEB=  302
                      TO THE COARSE GRID NRAD0= 24, NLEB0=  110

     EXCHANGE FUNCTIONAL   =B88&HFX   
     CORRELATION FUNCTIONAL=LYP88     
     DFT THRESHOLD         =.920E-08
     GRID CHANGE THRESHOLD =.300E-03
 FOR AN EULER-MACLAURIN QUADRATURE USING  96 RADIAL POINTS:
 SMALLEST GAUSSIAN PRIMITIVE EXPONENT=        0.1612777588 OF TYPE -S-
 ON ATOM NUMBER  10 HAS RADIAL NORMALIZATION=  1.000000
  LARGEST GAUSSIAN PRIMITIVE EXPONENT=     5484.6716600000 OF TYPE -S-
 ON ATOM NUMBER   8 HAS RADIAL NORMALIZATION=  1.000000

                                                                                NONZERO     BLOCKS
 ITER EX      TOTAL ENERGY        E CHANGE  DENSITY CHANGE    DIIS ERROR      INTEGRALS    SKIPPED
          * * *   INITIATING DIIS PROCEDURE   * * *
   1  0     -453.5961253842  -453.5961253842   0.499832948   0.105377283       39970585     226110
   2  1     -453.3733805555     0.2227448287   0.404839369   0.168784198       39986241     224850
   3  2     -453.7345790296    -0.3611984741   0.060524606   0.021241300       39967626     226458
   4  3     -453.7424405230    -0.0078614934   0.039709091   0.015555323       39965636     226700
   5  4     -453.7469775547    -0.0045370317   4.590768449   0.010271547       39963431     226888
   6  5     -452.9945731497     0.7524044050   4.579221093   0.060359022       40037341     215877
   7  6     -453.7489610640    -0.7543879143   0.019605985   0.006679527       39961913     226974
   8  7     -453.7495463514    -0.0005852874   0.008311515   0.004226305       39961437     227004
   9  8     -453.7496905652    -0.0001442138   0.003565988   0.003350003       39961432     227016
  10  9     -453.7497465802    -0.0000560150   0.003276438   0.002573859       39961321     227009
  11 10     -453.7497783190    -0.0000317388   0.001346484   0.001755126       39961487     227011
  12 11     -453.7497916470    -0.0000133280   0.001117759   0.001245008       39961447     227012
  13 12     -453.7498022533    -0.0000106064   0.000632361   0.000591230       39961419     227012
  14 13     -453.7498055852    -0.0000033319   0.000416328   0.000204708       39961303     227014
  15 14     -453.7498062366    -0.0000006514   0.000410201   0.000109692       39961258     227017
  16 15     -453.7498064838    -0.0000002473   0.000173685   0.000042996       39961295     227014
 DFT CODE IS SWITCHING BACK TO THE FINE GRID
          * * *   INITIATING DIIS PROCEDURE   * * *
  17 16     -453.7481127180     0.0016937658   0.005077497   0.001069903       39961295     227014
  18 17     -453.7481231658    -0.0000104479   0.000793957   0.000347089       39961211     227018
  19 18     -453.7481233023    -0.0000001365   0.000321311   0.000260967       39961212     227019
  20 19     -453.7481240097    -0.0000007074   0.000091533   0.000058617       39961217     227019
  21 20     -453.7481240252    -0.0000000156   0.000041719   0.000031707       39961217     227019
  22 21     -453.7481240348    -0.0000000096   0.000015334   0.000006418       39961220     227017
  23 22     -453.7481240359    -0.0000000011   0.000010160   0.000004013       39961220     227017
  24 23     -453.7481240363    -0.0000000004   0.000010493   0.000002589       39961220     227017
  25 24     -453.7481240365    -0.0000000002   0.000005463   0.000001118       39961220     227017
  26 25     -453.7481240366    -0.0000000000   0.000001858   0.000000440       39961220     227017
  27 26     -453.7481240366    -0.0000000000   0.000000831   0.000000215       39961220     227017

          -----------------
          DENSITY CONVERGED
          -----------------

          --------------------------
          Beta-Alpha orbital overlap
          --------------------------

   A <- B    A, eV     B, eV  Max Overlap
   1    1  -535.464  -535.229  1.000
   2    2  -535.644  -535.581  1.000
   3    3  -404.101  -404.075  1.000
   4    4  -405.192  -405.030  1.000
   5    5  -292.631  -292.651  1.000
   6    6  -291.196  -291.216  1.000
   7    7  -289.363  -289.000  1.000
   8    8  -289.598  -289.278  1.000
   9    9  -288.618  -288.643  1.000
  10   10   -32.512   -32.105  0.997
  11   11   -33.417   -33.249  0.997
  12   12   -30.445   -30.016  0.995
  13   13   -28.615   -28.393  0.996
  14   14   -26.133   -25.159  0.991
  15   15   -22.617   -22.230  0.983
  16   17   -21.209   -20.424  0.946   rearranged
  17   16   -20.628   -20.836  0.949   rearranged
  18   18   -17.739   -17.512  0.996
  19   19   -18.008   -17.709  0.998
  20   20   -15.087   -14.834  0.990
  21   21   -15.678   -14.797  0.948
  22   22   -16.095   -15.956  0.995
  23   23    -9.304    -9.056  0.997
  24   24   -14.139   -13.421  0.932
  25   25   -14.342   -14.195  0.992
  26   26   -13.840   -13.651  0.996
  27   27   -13.130   -12.160  0.923
  28   28   -13.237   -13.008  0.994
  29   29   -12.685   -12.572  0.993
  30   30   -12.211   -10.480  0.890   WARNING
  31   31    -9.783    -8.767  0.896   WARNING
  32   32   -10.150   -10.036  0.997
  33   33    -9.269    -3.183  0.852   WARNING
  34   34    -4.325     1.839  0.953
  35   35     1.586     2.423  0.973
  36   36     2.914     2.999  1.000
  37   38     4.327     4.101  0.985   rearranged
  38   37     4.024     4.364  0.996   rearranged
  39   39     4.323     5.329  0.859   WARNING
  40   40     4.968     5.066  0.992
  41   41     5.718     5.879  0.988
  42   42     6.233     7.034  0.888   WARNING
  43   43     8.034     8.108  0.977
  44   44     7.214     7.610  0.956
  45   45     7.444     7.724  0.942
  46   46     9.017     9.084  0.998
  47   47     9.932    10.102  0.994
  48   48    10.739    10.805  0.999
  49   49    11.344    11.432  0.996
  50   50    11.626    11.972  0.988
  51   51    14.337    14.550  0.980
  52   52    14.451    15.244  0.960
  53   53    15.398    15.837  0.977
  54   54    16.245    16.474  0.969
  55   55    16.410    16.719  0.992
  56   56    17.235    17.348  0.994
  57   57    17.730    17.768  0.999
  58   58    17.915    18.356  0.872   WARNING
  59   59    18.924    19.117  0.994
  60   60    18.740    19.600  0.864   WARNING
  61   61    19.817    19.965  0.982
  62   62    20.573    20.758  0.984
  63   63    21.606    21.743  0.997
  64   64    21.137    22.085  0.970
  65   65    22.269    22.475  0.996
  66   66    22.298    22.907  0.989
  67   67    23.417    23.530  0.996
  68   68    24.288    24.390  0.998
  69   69    25.141    25.236  0.984
  70   70    24.888    25.064  0.982
  71   71    25.507    25.771  0.966
  72   72    25.441    25.632  0.991
  73   73    25.996    26.317  0.967
  74   74    26.906    26.958  0.965
  75   75    26.958    27.004  0.966
  76   76    27.925    28.060  0.999
  77   77    28.434    28.566  0.998
  78   78    30.877    31.648  0.964
  79   79    30.334    30.462  0.800   WARNING
  80   80    30.179    30.380  0.801   WARNING
  81   81    30.440    30.731  0.965
  82   82    32.015    32.109  0.999
  83   84    33.189    32.831  0.990   rearranged
  84   83    32.619    33.310  0.988   rearranged
  85   85    34.468    35.142  0.995
  86   86    35.368    35.478  0.999
  87   87    36.443    36.617  0.999
  88   88    38.613    38.719  0.994
  89   89    38.328    38.914  0.960
  90   91    40.402    40.296  0.947   rearranged
  91   90    39.808    40.841  0.937   rearranged
  92   92    40.920    41.048  0.999
  93   93    41.022    41.864  0.922
  94   94    42.196    42.300  0.999
  95   95    41.980    42.451  0.934
  96   96    44.696    44.827  0.979
  97   97    45.001    45.160  0.979
  98   98    46.383    46.650  0.998
  99   99    51.053    51.623  0.972
 100  100    50.334    50.431  0.999
 101  101    51.127    51.226  0.999
 102  102    52.004    52.169  0.996
 103  103    51.391    51.567  0.972
 104  104    52.543    52.664  0.999
 105  105    52.835    53.048  0.992
 106  106    53.251    53.708  0.998
 107  107    54.162    54.595  0.899   WARNING
 108  108    54.769    55.214  0.904
 109  109    56.772    57.000  0.993
 110  110    56.467    56.922  0.978
 111  111    57.753    58.087  0.995
 112  112    57.521    57.874  0.981
 113  113    59.726    59.954  0.996
 114  114    61.057    61.370  0.996
 115  115    62.396    62.636  0.995
 116  116    61.654    62.162  0.993
 117  117    63.699    63.761  0.998
 118  118    64.987    65.567  0.992
 119  119    66.103    66.197  0.968
 120  120    66.268    66.709  0.953
 121  121    66.423    66.780  0.966
 122  122    66.855    67.657  0.953
 123  123    68.358    68.419  1.000
 124  124    69.269    69.389  0.999
 125  125    72.927    73.277  0.996
 126  126    74.266    74.507  0.994
 127  127    75.742    75.858  0.999
 128  128    75.675    76.248  0.990
 129  129    75.438    76.100  0.996
 130  130    76.354    76.614  0.993
 131  131    79.845    80.093  0.997
 132  132    80.531    80.674  0.999
 133  133    81.617    81.721  1.000
 134  134    85.280    85.411  0.998
 135  135    84.382    84.461  0.998
 136  136    86.098    86.155  1.000
 137  137    92.173    92.226  1.000
 138  138    97.256    97.355  1.000
 139  139   110.830   111.038  0.999
 140  140   112.129   112.299  0.999
 141  141   113.283   113.409  0.998
 142  142   116.666   116.908  0.996
 143  143   117.774   117.980  0.996
 144  144   120.791   120.939  0.998
 145  145   125.320   125.634  0.999
 146  146   129.376   129.535  0.999
 147  147   131.686   131.816  0.999
 
 --------------------------------------
 Beta orbitals rearrange recommendation
 --------------------------------------
 $scf rstrct=.t. $end
 $guess guess=moread norb=  147 norder=1
 jorder(1)=   1,   2,   3,   4,   5,   6,   7,   8,   9,  10,
  11,  12,  13,  14,  15,  17,  16,  18,  19,  20,
  21,  22,  23,  24,  25,  26,  27,  28,  29,  30,
  31,  32,  33,  34,  35,  36,  38,  37,  39,  40,
  41,  42,  43,  44,  45,  46,  47,  48,  49,  50,
  51,  52,  53,  54,  55,  56,  57,  58,  59,  60,
  61,  62,  63,  64,  65,  66,  67,  68,  69,  70,
  71,  72,  73,  74,  75,  76,  77,  78,  79,  80,
  81,  82,  84,  83,  85,  86,  87,  88,  89,  91,
  90,  92,  93,  94,  95,  96,  97,  98,  99, 100,
 101, 102, 103, 104, 105, 106, 107, 108, 109, 110,
 111, 112, 113, 114, 115, 116, 117, 118, 119, 120,
 121, 122, 123, 124, 125, 126, 127, 128, 129, 130,
 131, 132, 133, 134, 135, 136, 137, 138, 139, 140,
 141, 142, 143, 144, 145, 146, 147
 $end

     TIME TO FORM FOCK OPERATORS=       8.4 SECONDS (       0.3 SEC/ITER)
     FOCK TIME ON FIRST ITERATION=       0.2, LAST ITERATION=       0.6
     TIME TO SOLVE SCF EQUATIONS=       1.0 SECONDS (       0.0 SEC/ITER)

 FINAL U-BHHLYP ENERGY IS     -453.7481240366 AFTER  27 ITERATIONS
 DFT EXCHANGE + CORRELATION ENERGY =       -31.3518858544
 TOTAL ELECTRON NUMBER             =        66.0001574920

          --------------------
          SPIN SZ   =    1.000
          S-SQUARED =    2.021
          --------------------

  ----- ALPHA SET ----- 

          ------------
          EIGENVECTORS
          ------------

                      1          2          3          4          5
                  -19.6779   -19.6846   -14.8504   -14.8905   -10.7540
                     A          A          A          A          A   
    1  C  1  S   -0.000032   0.000031   0.000011   0.000002  -0.000312
    2  C  1  S    0.000364   0.000102   0.000123  -0.000001  -0.000679
    3  C  1  X   -0.000008  -0.000070  -0.000247  -0.000009   0.000083
    4  C  1  Y   -0.000055  -0.000049  -0.000164  -0.000016   0.000110
    5  C  1  Z   -0.000000  -0.000000  -0.000000  -0.000000   0.000000
    6  C  1  S   -0.001675   0.000137   0.000611   0.000694   0.002412
    7  C  1  X    0.000297  -0.000194  -0.000540   0.000101   0.001745
    8  C  1  Y   -0.004178   0.000438  -0.001301  -0.000378  -0.005309
    9  C  1  Z   -0.000003   0.000000  -0.000001  -0.000000  -0.000004
   10  C  1 XX   -0.000050   0.000093   0.000051   0.000015  -0.000059
   11  C  1 YY   -0.000983   0.000058   0.000039   0.000006  -0.000108
   12  C  1 ZZ   -0.000110   0.000057  -0.000059   0.000004  -0.000252
   13  C  1 XY    0.000066   0.000027   0.000034  -0.000007   0.000024
   14  C  1 XZ    0.000000  -0.000000  -0.000000  -0.000000  -0.000000
   15  C  1 YZ   -0.000001  -0.000000   0.000000  -0.000000   0.000000
   16  C  2  S    0.000002   0.000004   0.000007   0.000013   0.000041
   17  C  2  S    0.000056   0.000009   0.000076   0.000104   0.000370
   18  C  2  X   -0.000035  -0.000032   0.000019  -0.000010   0.000037
   19  C  2  Y   -0.000066  -0.000008  -0.000035   0.000036   0.000032
   20  C  2  Z   -0.000000   0.000000  -0.000000   0.000000   0.000000
   21  C  2  S   -0.001198   0.000468  -0.000767  -0.001069  -0.007370
   22  C  2  X    0.001587  -0.000038   0.000638   0.000781   0.003997
   23  C  2  Y    0.001357  -0.000048   0.000799   0.000424   0.002510
   24  C  2  Z   -0.000000  -0.000000   0.000001   0.000000   0.000001
   25  C  2 XX    0.000041   0.000020  -0.000067  -0.000017  -0.000089
   26  C  2 YY   -0.000101  -0.000018   0.000002  -0.000054  -0.000068
   27  C  2 ZZ   -0.000009   0.000018  -0.000001   0.000011   0.000067
   28  C  2 XY    0.000041   0.000030  -0.000009  -0.000038  -0.000058
   29  C  2 XZ   -0.000000   0.000000   0.000000  -0.000000  -0.000000
   30  C  2 YZ   -0.000000  -0.000000  -0.000000  -0.000000  -0.000000
   31  C  3  S    0.000011   0.000025   0.000005   0.000023  -0.000177
   32  C  3  S    0.000051   0.000100   0.000017   0.000188  -0.000587
   33  C  3  X   -0.000009  -0.000087  -0.000017  -0.000284   0.000181
   34  C  3  Y    0.000074  -0.000025   0.000012  -0.000150  -0.000022
   35  C  3  Z    0.000000   0.000000   0.000000  -0.000000  -0.000000
   36  C  3  S    0.001113  -0.000135   0.000955   0.000984   0.004739
   37  C  3  X   -0.000220   0.000177  -0.000188  -0.000766  -0.003168
   38  C  3  Y    0.000359  -0.000297   0.000287   0.000515   0.003569
   39  C  3  Z    0.000001  -0.000000   0.000000   0.000001   0.000004
   40  C  3 XX    0.000000   0.000036  -0.000006   0.000065   0.000106
   41  C  3 YY    0.000046   0.000055   0.000022   0.000030   0.000069
   42  C  3 ZZ    0.000029   0.000052   0.000009  -0.000063  -0.000225
   43  C  3 XY    0.000034   0.000048   0.000005   0.000022   0.000020
   44  C  3 XZ    0.000000   0.000000   0.000000  -0.000000  -0.000000
   45  C  3 YZ    0.000000  -0.000000   0.000000   0.000000   0.000000
   46  C  4  S    0.000034  -0.000021   0.000026   0.000028   0.994091
   47  C  4  S    0.000109   0.000409   0.000218   0.000198   0.039625
   48  C  4  X    0.000013   0.000085   0.000021   0.000294   0.000360
   49  C  4  Y    0.000088   0.000045   0.000304  -0.000155   0.000111
   50  C  4  Z    0.000000   0.000000   0.000000  -0.000000  -0.000000
   51  C  4  S    0.000354  -0.002270   0.000440   0.000439  -0.002790
   52  C  4  X   -0.000303   0.002849   0.000387   0.001076  -0.004391
   53  C  4  Y   -0.000006   0.001644   0.001056  -0.000211  -0.002450
   54  C  4  Z    0.000000   0.000000   0.000001  -0.000001  -0.000001
   55  C  4 XX    0.000059  -0.000788   0.000029   0.000054  -0.005111
   56  C  4 YY    0.000117  -0.000289  -0.000014   0.000028  -0.005511
   57  C  4 ZZ    0.000060  -0.000074  -0.000041  -0.000040  -0.006715
   58  C  4 XY   -0.000001  -0.000510   0.000010  -0.000000   0.000398
   59  C  4 XZ    0.000000  -0.000000  -0.000000  -0.000000  -0.000000
   60  C  4 YZ    0.000000  -0.000000   0.000000   0.000000   0.000001
   61  C  5  S    0.000013   0.000002  -0.000006  -0.000002  -0.000010
   62  C  5  S    0.000063   0.000018  -0.000022  -0.000004  -0.000032
   63  C  5  X    0.000022   0.000007   0.000034   0.000008   0.000046
   64  C  5  Y    0.000056   0.000004  -0.000003   0.000012   0.000022
   65  C  5  Z   -0.000000   0.000000   0.000000   0.000000  -0.000000
   66  C  5  S   -0.001160  -0.000096  -0.000328  -0.000298  -0.001322
   67  C  5  X    0.000478   0.000039   0.000055   0.000089   0.000379
   68  C  5  Y    0.000146   0.000029   0.000097   0.000038   0.000230
   69  C  5  Z    0.000002  -0.000000  -0.000001  -0.000000  -0.000001
   70  C  5 XX    0.000007  -0.000007  -0.000010   0.000008   0.000011
   71  C  5 YY    0.000011   0.000000  -0.000002  -0.000006  -0.000014
   72  C  5 ZZ    0.000006   0.000003  -0.000016  -0.000011  -0.000019
   73  C  5 XY   -0.000042  -0.000009   0.000008   0.000005   0.000026
   74  C  5 XZ    0.000000   0.000000  -0.000000   0.000000   0.000000
   75  C  5 YZ   -0.000000   0.000000   0.000000  -0.000000   0.000000
   76  N  6  S    0.000010   0.000002   0.000201   0.993498  -0.000172
   77  N  6  S    0.000041   0.000038   0.000007   0.031538   0.000233
   78  N  6  X   -0.000005   0.000041   0.000047  -0.000056   0.000031
   79  N  6  Y    0.000020   0.000028  -0.000025   0.000060  -0.000045
   80  N  6  Z    0.000000   0.000000  -0.000000   0.000000  -0.000000
   81  N  6  S   -0.000203  -0.000496  -0.000172   0.000311  -0.000175
   82  N  6  X   -0.000054  -0.000238  -0.000289   0.000205   0.000771
   83  N  6  Y   -0.000126  -0.000496  -0.000350  -0.000822  -0.000847
   84  N  6  Z   -0.000000  -0.000000  -0.000000  -0.000001  -0.000001
   85  N  6 XX   -0.000022  -0.000099   0.000003  -0.006625  -0.000617
   86  N  6 YY    0.000035   0.000066  -0.000032  -0.006525  -0.000198
   87  N  6 ZZ    0.000034  -0.000014  -0.000031  -0.006335   0.000119
   88  N  6 XY   -0.000005  -0.000073   0.000036  -0.000020   0.000225
   89  N  6 XZ    0.000000  -0.000000   0.000000   0.000000   0.000001
   90  N  6 YZ    0.000000   0.000000  -0.000000  -0.000000  -0.000000
   91  N  7  S    0.000010   0.000005   0.993545  -0.000199  -0.000186
   92  N  7  S    0.000084   0.000050   0.031428  -0.000001   0.000144
   93  N  7  X   -0.000004   0.000048   0.000033   0.000002  -0.000035
   94  N  7  Y   -0.000061   0.000016  -0.000177   0.000054   0.000032
   95  N  7  Z   -0.000000   0.000000  -0.000000   0.000000   0.000000
   96  N  7  S   -0.000915  -0.000563  -0.000224  -0.000185   0.000259
   97  N  7  X   -0.000509  -0.000571  -0.000709  -0.000448  -0.000022
   98  N  7  Y    0.000586  -0.000003   0.000513  -0.000072   0.001429
   99  N  7  Z    0.000001   0.000000   0.000001   0.000000   0.000001
  100  N  7 XX    0.000057  -0.000029  -0.006449   0.000002  -0.000127
  101  N  7 YY   -0.000108   0.000008  -0.006454  -0.000033  -0.000650
  102  N  7 ZZ    0.000007  -0.000007  -0.006342  -0.000027   0.000066
  103  N  7 XY   -0.000055  -0.000127  -0.000054   0.000034  -0.000052
  104  N  7 XZ   -0.000000  -0.000000   0.000000   0.000000   0.000000
  105  N  7 YZ   -0.000000   0.000000  -0.000000  -0.000000  -0.000001
  106  O  8  S    0.000056   0.993475  -0.000021  -0.000020  -0.000090
  107  O  8  S    0.000083   0.023732  -0.000099  -0.000094   0.001069
  108  O  8  X   -0.000002   0.001257  -0.000029  -0.000030   0.000156
  109  O  8  Y    0.000002   0.000718  -0.000016  -0.000018   0.000094
  110  O  8  Z    0.000000   0.000000  -0.000000  -0.000000   0.000000
  111  O  8  S   -0.000498   0.011455   0.000677   0.000640  -0.006785
  112  O  8  X   -0.000127   0.001136   0.000213  -0.000037  -0.002520
  113  O  8  Y   -0.000098   0.000663  -0.000153   0.000251  -0.001461
  114  O  8  Z   -0.000000   0.000000  -0.000000   0.000000  -0.000001
  115  O  8 XX    0.000025  -0.006158  -0.000026  -0.000154   0.000281
  116  O  8 YY    0.000048  -0.006445  -0.000145  -0.000019   0.000517
  117  O  8 ZZ    0.000057  -0.006612  -0.000076  -0.000073   0.000726
  118  O  8 XY   -0.000020   0.000289  -0.000054   0.000026  -0.000211
  119  O  8 XZ   -0.000000   0.000000  -0.000000   0.000000  -0.000000
  120  O  8 YZ   -0.000000   0.000000  -0.000000   0.000000  -0.000000
  121  O  9  S    0.993390  -0.000019  -0.000029  -0.000004  -0.000136
  122  O  9  S    0.023815   0.000087  -0.000135  -0.000016  -0.000602
  123  O  9  X    0.000064  -0.000002   0.000002   0.000005   0.000008
  124  O  9  Y   -0.001381  -0.000001   0.000034   0.000003   0.000000
  125  O  9  Z   -0.000001   0.000000   0.000000   0.000000   0.000000
  126  O  9  S    0.012241  -0.000561   0.000955   0.000121   0.004363
  127  O  9  X    0.000096   0.000013   0.000205  -0.000031  -0.000169
  128  O  9  Y   -0.001425   0.000157  -0.000150  -0.000006  -0.000907
  129  O  9  Z   -0.000001   0.000000  -0.000000  -0.000000  -0.000000
  130  O  9 XX   -0.006758   0.000061  -0.000095  -0.000009  -0.000410
  131  O  9 YY   -0.006232   0.000029  -0.000124  -0.000016  -0.000325
  132  O  9 ZZ   -0.006698   0.000058  -0.000091  -0.000013  -0.000332
  133  O  9 XY   -0.000040   0.000003  -0.000066   0.000006   0.000021
  134  O  9 XZ   -0.000000   0.000000  -0.000000  -0.000000   0.000000
  135  O  9 YZ    0.000000  -0.000000  -0.000000  -0.000000  -0.000000
  136  H 10  S   -0.000018  -0.000057  -0.000050   0.000284  -0.000072
  137  H 10  S   -0.000017  -0.000117  -0.000017  -0.000368  -0.000108
  138  H 11  S   -0.000066  -0.000055   0.000283  -0.000048  -0.000103
  139  H 11  S   -0.000168  -0.000119  -0.000343  -0.000014   0.000036
  140  H 12  S    0.000016   0.000001   0.000014  -0.000002   0.000036
  141  H 12  S   -0.000054   0.000014   0.000038   0.000008  -0.000062
  142  H 13  S    0.000057   0.000005  -0.000006   0.000006  -0.000008
  143  H 13  S    0.000032  -0.000004   0.000002   0.000005   0.000061
  144  H 14  S    0.000056   0.000005  -0.000006   0.000006  -0.000008
  145  H 14  S    0.000035  -0.000004   0.000001   0.000004   0.000060
  146  H 15  S    0.000001  -0.000016  -0.000007   0.000007   0.000233
  147  H 15  S    0.000034  -0.000150   0.000033   0.000296   0.001663

                      6          7          8          9         10
                  -10.7013   -10.6339   -10.6425   -10.6065    -1.1948
                     A          A          A          A          A   
    1  C  1  S    0.994116   0.000381  -0.005164   0.000033  -0.117774
    2  C  1  S    0.040462  -0.000256  -0.000523  -0.000176   0.225302
    3  C  1  X   -0.000737  -0.000023  -0.000150  -0.000069  -0.023465
    4  C  1  Y    0.000099  -0.000020   0.000059  -0.000051   0.146958
    5  C  1  Z    0.000000   0.000000   0.000000   0.000000   0.000105
    6  C  1  S   -0.008693   0.000958   0.006687  -0.000577   0.043065
    7  C  1  X   -0.004934   0.000787   0.002027   0.001900   0.017904
    8  C  1  Y    0.008145  -0.001551  -0.002695   0.000440  -0.056915
    9  C  1  Z    0.000006  -0.000002  -0.000002  -0.000001  -0.000050
   10  C  1 XX   -0.005893   0.000075  -0.000358  -0.000058  -0.015300
   11  C  1 YY   -0.005057   0.000119  -0.000214  -0.000011   0.020206
   12  C  1 ZZ   -0.006554  -0.000067  -0.000133  -0.000078  -0.020508
   13  C  1 XY    0.000114  -0.000084   0.000092  -0.000084  -0.002274
   14  C  1 XZ   -0.000000  -0.000000   0.000000  -0.000000  -0.000004
   15  C  1 YZ    0.000001   0.000000  -0.000000   0.000000   0.000032
   16  C  2  S    0.004786  -0.059452   0.991927  -0.006125  -0.022698
   17  C  2  S   -0.000104  -0.002838   0.042917  -0.000316   0.042874
   18  C  2  X    0.000269  -0.000029  -0.000140  -0.000175  -0.021556
   19  C  2  Y   -0.000022   0.000337  -0.000575  -0.000033   0.018414
   20  C  2  Z   -0.000000   0.000000  -0.000001  -0.000000   0.000016
   21  C  2  S    0.006880   0.005125  -0.019217   0.004364   0.003010
   22  C  2  X   -0.005948   0.001227   0.002580   0.002627   0.008108
   23  C  2  Y    0.000624  -0.002912   0.002029   0.000318   0.015501
   24  C  2  Z    0.000003  -0.000002   0.000000  -0.000000   0.000016
   25  C  2 XX   -0.000415   0.000098  -0.006979  -0.000375   0.003179
   26  C  2 YY   -0.000369   0.000063  -0.006636  -0.000196   0.001580
   27  C  2 ZZ   -0.000207   0.000252  -0.006527  -0.000087  -0.001268
   28  C  2 XY    0.000096   0.000033   0.000047  -0.000164  -0.004972
   29  C  2 XZ    0.000000   0.000000  -0.000000  -0.000000  -0.000004
   30  C  2 YZ   -0.000000  -0.000000  -0.000000  -0.000000   0.000003
   31  C  3  S   -0.000135   0.991793   0.058902   0.000261  -0.002112
   32  C  3  S   -0.000248   0.043010   0.002108  -0.000093   0.005152
   33  C  3  X    0.000014  -0.001021  -0.000075  -0.000082   0.002877
   34  C  3  Y   -0.000126   0.000145  -0.000353  -0.000025   0.011343
   35  C  3  Z   -0.000000   0.000000  -0.000000   0.000000   0.000008
   36  C  3  S   -0.000883  -0.011543   0.007575  -0.000869   0.006710
   37  C  3  X    0.001051  -0.000552  -0.001475   0.000286   0.006151
   38  C  3  Y    0.000632  -0.003117   0.003067  -0.000155   0.004200
   39  C  3  Z   -0.000000  -0.000003   0.000003  -0.000002   0.000002
   40  C  3 XX    0.000049  -0.006993  -0.000648  -0.000041  -0.001235
   41  C  3 YY    0.000087  -0.006911  -0.000881   0.000042   0.000826
   42  C  3 ZZ   -0.000104  -0.006855  -0.000605  -0.000074   0.000187
   43  C  3 XY   -0.000018   0.000215  -0.000013  -0.000077  -0.000985
   44  C  3 XZ   -0.000000   0.000000  -0.000000  -0.000000  -0.000000
   45  C  3 YZ    0.000000  -0.000000  -0.000000   0.000000   0.000001
   46  C  4  S    0.000056   0.000015   0.000006  -0.000004   0.041677
   47  C  4  S   -0.000557  -0.000411  -0.000078  -0.000025  -0.078708
   48  C  4  X   -0.000022  -0.000049   0.000039  -0.000021   0.055180
   49  C  4  Y   -0.000200   0.000050   0.000021   0.000011   0.053305
   50  C  4  Z   -0.000000   0.000000  -0.000000   0.000000   0.000027
   51  C  4  S   -0.000733   0.000711   0.001210  -0.000115  -0.009186
   52  C  4  X    0.004253   0.002402   0.001693  -0.000455  -0.029500
   53  C  4  Y   -0.000473   0.003632   0.001131   0.000123  -0.012411
   54  C  4  Z   -0.000003   0.000002   0.000000  -0.000000   0.000001
   55  C  4 XX   -0.000145   0.000062   0.000032  -0.000034  -0.005371
   56  C  4 YY   -0.000086  -0.000007   0.000013   0.000007   0.005913
   57  C  4 ZZ   -0.000240  -0.000151  -0.000032  -0.000017   0.008161
   58  C  4 XY   -0.000046  -0.000013   0.000008  -0.000030  -0.006025
   59  C  4 XZ   -0.000000  -0.000000  -0.000000  -0.000000   0.000000
   60  C  4 YZ    0.000000   0.000000   0.000000   0.000000  -0.000000
   61  C  5  S   -0.000073  -0.000639   0.005848   0.994043  -0.006151
   62  C  5  S   -0.000261  -0.000143   0.000206   0.041749   0.011342
   63  C  5  X    0.000015   0.000037   0.000135  -0.000246  -0.007563
   64  C  5  Y   -0.000077   0.000056   0.000167  -0.000111  -0.001015
   65  C  5  Z    0.000000   0.000001  -0.000002  -0.000001   0.000008
   66  C  5  S    0.002201  -0.000491   0.001848  -0.017478  -0.002188
   67  C  5  X   -0.000720  -0.000141  -0.000772   0.001226   0.000282
   68  C  5  Y   -0.000726   0.000345  -0.001192   0.000604   0.001401
   69  C  5  Z   -0.000002  -0.000003   0.000008   0.000003  -0.000025
   70  C  5 XX    0.000002   0.000079  -0.000396  -0.006221   0.001416
   71  C  5 YY    0.000055   0.000025  -0.000203  -0.006224   0.000307
   72  C  5 ZZ   -0.000082  -0.000056  -0.000083  -0.006163  -0.000208
   73  C  5 XY    0.000068   0.000023  -0.000135  -0.000062   0.000329
   74  C  5 XZ   -0.000000  -0.000000   0.000000   0.000000  -0.000002
   75  C  5 YZ   -0.000000  -0.000000  -0.000000  -0.000000   0.000000
   76  N  6  S    0.000032  -0.000184   0.000058  -0.000035   0.015891
   77  N  6  S    0.000140   0.000175   0.000199  -0.000136  -0.034467
   78  N  6  X   -0.000032   0.000059   0.000003  -0.000002   0.015541
   79  N  6  Y   -0.000023  -0.000004   0.000041  -0.000025   0.003019
   80  N  6  Z    0.000000  -0.000000   0.000000  -0.000000  -0.000005
   81  N  6  S   -0.001847   0.000118  -0.002833   0.001074  -0.016076
   82  N  6  X    0.001383  -0.001859  -0.000262   0.000115   0.010022
   83  N  6  Y   -0.000721  -0.001339  -0.001400   0.000512   0.006250
   84  N  6  Z   -0.000001  -0.000000  -0.000001   0.000001   0.000001
   85  N  6 XX    0.000070  -0.000587   0.000122  -0.000030  -0.003108
   86  N  6 YY    0.000012  -0.000219   0.000197  -0.000052  -0.000231
   87  N  6 ZZ    0.000049   0.000055   0.000107  -0.000087   0.001012
   88  N  6 XY    0.000056  -0.000272   0.000020   0.000031   0.001039
   89  N  6 XZ    0.000000  -0.000000   0.000000   0.000000   0.000003
   90  N  6 YZ   -0.000000  -0.000000   0.000000   0.000000  -0.000001
   91  N  7  S   -0.000197   0.000068   0.000068  -0.000059  -0.033539
   92  N  7  S    0.000074   0.000272   0.000172  -0.000237   0.069126
   93  N  7  X   -0.000024   0.000002   0.000026  -0.000052   0.029437
   94  N  7  Y    0.000133  -0.000025  -0.000031  -0.000027   0.040378
   95  N  7  Z    0.000000  -0.000000  -0.000000  -0.000000   0.000017
   96  N  7  S    0.001674  -0.003435  -0.002743   0.001973   0.063591
   97  N  7  X   -0.001124  -0.000668  -0.001079   0.001071   0.017472
   98  N  7  Y   -0.003024   0.001607   0.000675   0.000679   0.029885
   99  N  7  Z   -0.000001   0.000002   0.000001   0.000001   0.000016
  100  N  7 XX   -0.000595   0.000155   0.000202  -0.000042   0.005308
  101  N  7 YY   -0.000394   0.000080   0.000149  -0.000103   0.001112
  102  N  7 ZZ    0.000017   0.000124   0.000092  -0.000148  -0.002854
  103  N  7 XY   -0.000408   0.000018  -0.000008   0.000060   0.003677
  104  N  7 XZ    0.000000   0.000000  -0.000000   0.000000  -0.000002
  105  N  7 YZ   -0.000000  -0.000000   0.000000  -0.000000   0.000001
  106  O  8  S   -0.000126  -0.000118  -0.000053  -0.000001   0.070774
  107  O  8  S   -0.000554  -0.000520  -0.000237  -0.000001  -0.149437
  108  O  8  X    0.000010  -0.000023  -0.000019  -0.000000  -0.050268
  109  O  8  Y   -0.000011  -0.000007  -0.000012   0.000003  -0.026407
  110  O  8  Z   -0.000000   0.000000  -0.000000  -0.000000  -0.000006
  111  O  8  S    0.003853   0.003622   0.001590  -0.000097  -0.165103
  112  O  8  X    0.000597   0.000810   0.000282   0.000055  -0.023226
  113  O  8  Y    0.000813   0.000109   0.000143  -0.000021  -0.012041
  114  O  8  Z    0.000001  -0.000000   0.000000   0.000000  -0.000004
  115  O  8 XX   -0.000326  -0.000289  -0.000144   0.000020  -0.002150
  116  O  8 YY   -0.000326  -0.000367  -0.000148   0.000002   0.002956
  117  O  8 ZZ   -0.000324  -0.000291  -0.000144  -0.000019   0.003628
  118  O  8 XY    0.000087  -0.000006  -0.000001   0.000013  -0.004019
  119  O  8 XZ    0.000000  -0.000000  -0.000000   0.000000  -0.000001
  120  O  8 YZ   -0.000000  -0.000000  -0.000000   0.000000   0.000001
  121  O  9  S   -0.000035  -0.000056   0.000002  -0.000031  -0.175239
  122  O  9  S    0.001275  -0.000243  -0.000050  -0.000120   0.376919
  123  O  9  X   -0.000047  -0.000001   0.000019  -0.000036   0.006150
  124  O  9  Y   -0.000156   0.000035  -0.000022   0.000031  -0.138885
  125  O  9  Z   -0.000000  -0.000000   0.000000   0.000000  -0.000095
  126  O  9  S   -0.008182   0.001496   0.000231   0.000408   0.386572
  127  O  9  X    0.000614   0.000015  -0.000303  -0.000190  -0.000356
  128  O  9  Y    0.003169  -0.000309   0.000088  -0.000187  -0.059637
  129  O  9  Z    0.000002  -0.000000  -0.000000  -0.000001  -0.000036
  130  O  9 XX    0.000765  -0.000146   0.000052  -0.000089  -0.010628
  131  O  9 YY    0.000210  -0.000172   0.000032  -0.000063   0.009664
  132  O  9 ZZ    0.000864  -0.000146  -0.000051  -0.000151  -0.005233
  133  O  9 XY   -0.000121  -0.000021   0.000019   0.000023  -0.000652
  134  O  9 XZ   -0.000000  -0.000000  -0.000000  -0.000000  -0.000002
  135  O  9 YZ   -0.000000  -0.000000   0.000000   0.000000   0.000011
  136  H 10  S   -0.000016  -0.000213  -0.000112   0.000019  -0.009913
  137  H 10  S   -0.000099  -0.000317  -0.000053   0.000136   0.000184
  138  H 11  S    0.000019  -0.000072  -0.000100  -0.000015   0.016435
  139  H 11  S    0.000081  -0.000119  -0.000004   0.000158   0.000129
  140  H 12  S   -0.000053  -0.000023  -0.000092   0.000046   0.001703
  141  H 12  S    0.000008   0.000272  -0.000331   0.002633   0.000686
  142  H 13  S   -0.000080   0.000020  -0.000125   0.000106   0.002914
  143  H 13  S    0.000011  -0.000026   0.000462   0.002752   0.001885
  144  H 14  S   -0.000080   0.000019  -0.000126   0.000105   0.002882
  145  H 14  S    0.000008  -0.000029   0.000472   0.002756   0.001833
  146  H 15  S   -0.000028  -0.000219  -0.000046  -0.000027  -0.000088
  147  H 15  S    0.000074   0.001477   0.000501  -0.000187  -0.002628

                     11         12         13         14         15
                   -1.2280    -1.1188    -1.0516    -0.9604    -0.8312
                     A          A          A          A          A   
    1  C  1  S   -0.048170  -0.002211  -0.026365  -0.034207   0.014222
    2  C  1  S    0.097470   0.004728   0.055741   0.068403  -0.029688
    3  C  1  X   -0.021524  -0.005837  -0.082000   0.087395   0.037854
    4  C  1  Y    0.019044  -0.081543  -0.136939  -0.083784   0.026039
    5  C  1  Z    0.000019  -0.000053  -0.000059  -0.000088  -0.000001
    6  C  1  S   -0.011243  -0.037756   0.001812   0.041239  -0.008541
    7  C  1  X    0.002917   0.004213   0.026651  -0.004685   0.004643
    8  C  1  Y    0.021710   0.027319   0.028247  -0.030340   0.015406
    9  C  1  Z    0.000015   0.000018   0.000013  -0.000015   0.000020
   10  C  1 XX   -0.002799   0.006677   0.014790   0.007038   0.000939
   11  C  1 YY    0.006598  -0.005033  -0.008967  -0.003966  -0.001582
   12  C  1 ZZ   -0.007046   0.000892  -0.002010  -0.001864   0.001929
   13  C  1 XY    0.001967   0.003058   0.013329  -0.008216   0.001296
   14  C  1 XZ   -0.000001  -0.000000   0.000002  -0.000010   0.000002
   15  C  1 YZ    0.000010  -0.000005  -0.000010   0.000002  -0.000003
   16  C  2  S   -0.018047  -0.038013   0.000269  -0.159780  -0.005156
   17  C  2  S    0.030489   0.068722  -0.001820   0.313567   0.009053
   18  C  2  X   -0.015602  -0.016070  -0.017582   0.006811   0.106339
   19  C  2  Y   -0.004597  -0.039989   0.013058  -0.046631   0.154709
   20  C  2  Z   -0.000002  -0.000031   0.000019  -0.000071   0.000053
   21  C  2  S    0.071868   0.083992   0.009289   0.215598   0.020672
   22  C  2  X   -0.032263  -0.045670  -0.009408   0.002468   0.028053
   23  C  2  Y   -0.022705  -0.029910  -0.022321   0.020386   0.026317
   24  C  2  Z   -0.000012  -0.000021  -0.000025  -0.000003  -0.000013
   25  C  2 XX    0.001598  -0.001375   0.003648  -0.000969   0.010593
   26  C  2 YY    0.001952   0.003197  -0.003919   0.001868  -0.008361
   27  C  2 ZZ   -0.001653  -0.003398   0.000018  -0.007677   0.000480
   28  C  2 XY   -0.000767   0.002652  -0.000839   0.002651   0.006359
   29  C  2 XZ   -0.000001   0.000002  -0.000002  -0.000000  -0.000005
   30  C  2 YZ    0.000004   0.000006  -0.000003   0.000007  -0.000016
   31  C  3  S   -0.026158  -0.083687   0.039111  -0.092747   0.108715
   32  C  3  S    0.055094   0.160523  -0.078139   0.180590  -0.216612
   33  C  3  X   -0.031135  -0.077206   0.037736   0.037146   0.021354
   34  C  3  Y   -0.003753  -0.016469   0.033217   0.125185  -0.004848
   35  C  3  Z    0.000006   0.000005   0.000019   0.000087  -0.000015
   36  C  3  S   -0.029808   0.016760  -0.051887   0.137550  -0.177580
   37  C  3  X    0.033854   0.033312  -0.012002   0.011563  -0.012492
   38  C  3  Y   -0.030943  -0.013136  -0.004123   0.024165   0.000058
   39  C  3  Z   -0.000038  -0.000019   0.000005   0.000028   0.000016
   40  C  3 XX    0.003267   0.008197  -0.004560  -0.009163   0.001310
   41  C  3 YY   -0.000810  -0.000339   0.000406   0.010677  -0.000503
   42  C  3 ZZ   -0.001428  -0.007370   0.002816  -0.004750   0.005381
   43  C  3 XY    0.002189   0.006870  -0.005815  -0.005229   0.004066
   44  C  3 XZ    0.000000   0.000001  -0.000003  -0.000003   0.000004
   45  C  3 YZ    0.000000   0.000006  -0.000001   0.000016  -0.000009
   46  C  4  S   -0.131632  -0.007050  -0.019972   0.030077  -0.048005
   47  C  4  S    0.262533   0.017528   0.042956  -0.065129   0.108093
   48  C  4  X   -0.074555   0.199027  -0.006988  -0.087793   0.105601
   49  C  4  Y   -0.049633   0.056656   0.172418  -0.010701  -0.013010
   50  C  4  Z   -0.000020  -0.000020   0.000151   0.000022  -0.000051
   51  C  4  S    0.012847  -0.028052  -0.002500  -0.020600   0.049020
   52  C  4  X    0.006221  -0.041752  -0.003077   0.001279   0.010129
   53  C  4  Y    0.007734  -0.014254  -0.021004  -0.010054   0.006583
   54  C  4  Z    0.000007   0.000003  -0.000015  -0.000007   0.000007
   55  C  4 XX    0.009982   0.000348  -0.016230   0.000619  -0.001805
   56  C  4 YY   -0.003984   0.005929   0.018750  -0.003661   0.002537
   57  C  4 ZZ   -0.022108   0.001117  -0.002318   0.003290  -0.005099
   58  C  4 XY    0.013101  -0.020549   0.004374   0.010874  -0.010942
   59  C  4 XZ   -0.000001  -0.000018   0.000009   0.000011  -0.000011
   60  C  4 YZ    0.000014   0.000012   0.000019  -0.000011   0.000012
   61  C  5  S   -0.002659  -0.006116   0.003175  -0.086035  -0.149911
   62  C  5  S    0.005873   0.011414  -0.004865   0.161704   0.286644
   63  C  5  X   -0.004104  -0.006569   0.000835  -0.049410  -0.003015
   64  C  5  Y   -0.001594  -0.006489   0.001492  -0.036074   0.011869
   65  C  5  Z    0.000001  -0.000005  -0.000005  -0.000003  -0.000035
   66  C  5  S    0.011472   0.028065   0.003251   0.116469   0.269691
   67  C  5  X   -0.002624  -0.005177   0.002214   0.001933   0.007053
   68  C  5  Y   -0.001236  -0.004400  -0.005022  -0.006570   0.003344
   69  C  5  Z    0.000012   0.000038   0.000038  -0.000017   0.000009
   70  C  5 XX    0.000745   0.001000  -0.000007   0.005148  -0.000079
   71  C  5 YY    0.000255   0.000438  -0.000056   0.002768   0.001412
   72  C  5 ZZ    0.000148  -0.000138   0.000216  -0.001564   0.003956
   73  C  5 XY    0.000211   0.001248   0.000056   0.005297  -0.002998
   74  C  5 XZ   -0.000001   0.000000   0.000002   0.000003  -0.000005
   75  C  5 YZ    0.000000  -0.000001  -0.000002  -0.000007   0.000001
   76  N  6  S   -0.074694  -0.147694   0.089254   0.058213  -0.023756
   77  N  6  S    0.151351   0.303895  -0.190498  -0.125389   0.051851
   78  N  6  X   -0.037387   0.018974  -0.016928   0.074629  -0.185944
   79  N  6  Y    0.020460   0.035460   0.025833   0.036244  -0.045319
   80  N  6  Z    0.000040   0.000045   0.000013  -0.000005   0.000028
   81  N  6  S    0.172119   0.355450  -0.197754  -0.147431   0.075366
   82  N  6  X   -0.023174   0.009826  -0.001936   0.035636  -0.080362
   83  N  6  Y    0.026968   0.043502   0.015338   0.017387  -0.025121
   84  N  6  Z    0.000036   0.000045   0.000004  -0.000009   0.000003
   85  N  6 XX    0.007485  -0.000701  -0.001820   0.002818  -0.003580
   86  N  6 YY    0.002575   0.008390  -0.004347  -0.003046   0.001695
   87  N  6 ZZ   -0.006618  -0.012183   0.005331   0.002496  -0.000307
   88  N  6 XY   -0.002993   0.001523  -0.003947   0.006656  -0.009633
   89  N  6 XZ   -0.000009  -0.000002  -0.000001   0.000007  -0.000010
   90  N  6 YZ    0.000009   0.000018  -0.000005  -0.000005   0.000003
   91  N  7  S   -0.069645  -0.045660  -0.171482   0.024595   0.002872
   92  N  7  S    0.139506   0.088008   0.351964  -0.051556  -0.005191
   93  N  7  X    0.004448   0.027087   0.004460   0.029080  -0.016716
   94  N  7  Y   -0.032965  -0.019999  -0.012229   0.020335  -0.062772
   95  N  7  Z   -0.000034  -0.000028  -0.000020   0.000008  -0.000045
   96  N  7  S    0.154250   0.134990   0.420394  -0.069204  -0.009566
   97  N  7  X    0.013829   0.037111   0.021562   0.001182  -0.005125
   98  N  7  Y   -0.021383  -0.013532  -0.012139  -0.000078  -0.024146
   99  N  7  Z   -0.000028  -0.000028  -0.000025  -0.000001  -0.000024
  100  N  7 XX    0.002488   0.000474   0.008175   0.002246  -0.003603
  101  N  7 YY    0.009978  -0.000550   0.002740  -0.003626   0.003652
  102  N  7 ZZ   -0.006996  -0.005482  -0.014593   0.001567   0.000566
  103  N  7 XY    0.002678  -0.004236  -0.003357   0.002653  -0.002178
  104  N  7 XZ   -0.000003  -0.000007  -0.000015   0.000002  -0.000000
  105  N  7 YZ    0.000016   0.000007   0.000018  -0.000006   0.000004
  106  O  8  S   -0.143815   0.110000   0.032113  -0.034380   0.034039
  107  O  8  S    0.310298  -0.236351  -0.069539   0.075510  -0.075375
  108  O  8  X    0.108424  -0.057928  -0.025792   0.002077   0.021868
  109  O  8  Y    0.061639  -0.041722   0.013847   0.009534  -0.009386
  110  O  8  Z    0.000018  -0.000018   0.000021   0.000008  -0.000017
  111  O  8  S    0.293288  -0.249491  -0.075115   0.081032  -0.090381
  112  O  8  X    0.044745  -0.019919  -0.011693  -0.001390   0.011748
  113  O  8  Y    0.024665  -0.017204   0.011987   0.004529  -0.004257
  114  O  8  Z    0.000006  -0.000009   0.000014   0.000004  -0.000009
  115  O  8 XX    0.007263  -0.000036  -0.003096  -0.001546   0.003720
  116  O  8 YY   -0.002632   0.001758   0.004144  -0.000052  -0.000371
  117  O  8 ZZ   -0.005249   0.004422   0.001104  -0.000848   0.000476
  118  O  8 XY    0.009639  -0.004700   0.001724   0.000466   0.000395
  119  O  8 XZ    0.000004  -0.000003   0.000003   0.000001  -0.000001
  120  O  8 YZ   -0.000000  -0.000001   0.000002   0.000001  -0.000001
  121  O  9  S   -0.048209   0.046700   0.066523   0.032061   0.000372
  122  O  9  S    0.107101  -0.101616  -0.144076  -0.073686   0.001562
  123  O  9  X    0.000066  -0.003134  -0.016426   0.017790   0.019800
  124  O  9  Y   -0.041584   0.029692   0.030132   0.008212   0.004731
  125  O  9  Z   -0.000028   0.000021   0.000028  -0.000000  -0.000001
  126  O  9  S    0.084521  -0.104180  -0.160712  -0.061716  -0.013296
  127  O  9  X   -0.001896  -0.002145  -0.012900   0.008655   0.008883
  128  O  9  Y   -0.014961   0.009404   0.011438  -0.001235   0.006620
  129  O  9  Z   -0.000008   0.000007   0.000011  -0.000002   0.000005
  130  O  9 XX   -0.001847   0.001921   0.002821   0.000457   0.001710
  131  O  9 YY    0.004628  -0.000988   0.000531  -0.000568   0.000034
  132  O  9 ZZ   -0.000468   0.000993   0.001535  -0.000507   0.000870
  133  O  9 XY    0.000367   0.000520   0.002983  -0.002506  -0.001422
  134  O  9 XZ   -0.000000   0.000001   0.000003  -0.000001  -0.000001
  135  O  9 YZ    0.000004  -0.000001  -0.000002   0.000001  -0.000000
  136  H 10  S    0.035202   0.075244  -0.063910  -0.053043   0.038416
  137  H 10  S    0.001637   0.000744  -0.001295   0.000260   0.001575
  138  H 11  S    0.031559   0.015593   0.099523  -0.022117  -0.009059
  139  H 11  S    0.000896   0.000302   0.001652  -0.000578  -0.004526
  140  H 12  S    0.000805   0.002960  -0.002146   0.045106   0.096442
  141  H 12  S   -0.000128  -0.002161  -0.003338   0.003715   0.020334
  142  H 13  S    0.001197   0.001754  -0.001068   0.042705   0.104636
  143  H 13  S   -0.000129  -0.001542  -0.000548   0.003617   0.024387
  144  H 14  S    0.001190   0.001772  -0.001063   0.042750   0.104670
  145  H 14  S   -0.000115  -0.001492  -0.000500   0.003598   0.024437
  146  H 15  S    0.005045   0.026139  -0.017062   0.041144  -0.065856
  147  H 15  S   -0.016778  -0.008786   0.003104   0.003224  -0.008038

                     16         17         18         19         20
                   -0.7794    -0.7581    -0.6519    -0.6618    -0.5544
                     A          A          A          A          A   
    1  C  1  S    0.081569  -0.080495  -0.018188  -0.031384   0.056697
    2  C  1  S   -0.171501   0.175599   0.035112   0.070226  -0.133728
    3  C  1  X   -0.098010  -0.097304   0.268113  -0.078170  -0.050235
    4  C  1  Y    0.125750  -0.109932  -0.001964  -0.052022  -0.160149
    5  C  1  Z    0.000115  -0.000026  -0.000093  -0.000030  -0.000163
    6  C  1  S   -0.111817   0.103936   0.056588   0.034467  -0.124188
    7  C  1  X   -0.022100   0.020965   0.048800   0.010263  -0.025520
    8  C  1  Y    0.043623  -0.014661  -0.013170  -0.011500   0.009185
    9  C  1  Z    0.000039  -0.000005  -0.000015  -0.000010  -0.000039
   10  C  1 XX    0.000542   0.013039  -0.003198  -0.005414   0.004120
   11  C  1 YY    0.002509  -0.014709  -0.001714   0.001754   0.006631
   12  C  1 ZZ    0.005957  -0.007441   0.001598  -0.003605   0.004948
   13  C  1 XY    0.003868   0.006491  -0.006184   0.008772   0.002162
   14  C  1 XZ    0.000005  -0.000005  -0.000002   0.000006   0.000001
   15  C  1 YZ   -0.000005  -0.000008   0.000000   0.000003  -0.000000
   16  C  2  S    0.055963   0.009558  -0.023776   0.080478  -0.024297
   17  C  2  S   -0.111668  -0.021578   0.046596  -0.167189   0.049748
   18  C  2  X    0.162483  -0.042016  -0.116472  -0.071011  -0.009650
   19  C  2  Y   -0.059579   0.106599   0.215531   0.065023  -0.139634
   20  C  2  Z   -0.000106   0.000094   0.000190   0.000032  -0.000176
   21  C  2  S   -0.122415  -0.007103   0.096203  -0.176500   0.062103
   22  C  2  X    0.034830  -0.009201  -0.035216  -0.023397  -0.039624
   23  C  2  Y   -0.012739  -0.000564   0.045789   0.000862  -0.062335
   24  C  2  Z   -0.000021  -0.000021   0.000038  -0.000028  -0.000049
   25  C  2 XX   -0.003018   0.009645   0.004686   0.008727  -0.002124
   26  C  2 YY    0.007792  -0.007539  -0.006842   0.000238  -0.001734
   27  C  2 ZZ    0.001198   0.000909   0.000684   0.001554  -0.001390
   28  C  2 XY    0.007900  -0.001705  -0.003651   0.004238   0.008315
   29  C  2 XZ    0.000002  -0.000006  -0.000002  -0.000001   0.000010
   30  C  2 YZ    0.000004  -0.000009  -0.000007  -0.000003  -0.000004
   31  C  3  S   -0.073391   0.038736   0.032966  -0.011171   0.026625
   32  C  3  S    0.147549  -0.076356  -0.061523   0.027039  -0.056313
   33  C  3  X    0.032545  -0.017117  -0.114604  -0.190537  -0.101229
   34  C  3  Y   -0.121623  -0.087890  -0.136508  -0.162398   0.190500
   35  C  3  Z   -0.000123  -0.000072  -0.000094  -0.000122   0.000194
   36  C  3  S    0.135290  -0.089678  -0.110117  -0.005951  -0.113512
   37  C  3  X    0.028687  -0.014055  -0.034539  -0.043085  -0.043593
   38  C  3  Y   -0.015697  -0.022854  -0.045440  -0.035078   0.079455
   39  C  3  Z   -0.000018  -0.000010  -0.000042  -0.000026   0.000082
   40  C  3 XX    0.003832  -0.000141   0.003262   0.016577  -0.012291
   41  C  3 YY   -0.003771   0.003358   0.001616  -0.015321   0.008794
   42  C  3 ZZ   -0.003083   0.001190  -0.000472  -0.003446  -0.000729
   43  C  3 XY    0.004811   0.005949   0.008096   0.004721   0.009200
   44  C  3 XZ    0.000001   0.000005   0.000006   0.000001   0.000013
   45  C  3 YZ   -0.000000   0.000001  -0.000000  -0.000012   0.000001
   46  C  4  S    0.032624   0.094453   0.006921   0.015581   0.049627
   47  C  4  S   -0.073529  -0.214213  -0.014744  -0.040564  -0.121009
   48  C  4  X   -0.124680  -0.082025  -0.145488   0.027538   0.045086
   49  C  4  Y    0.093912  -0.160675   0.217561   0.049931   0.144648
   50  C  4  Z    0.000133  -0.000108   0.000264   0.000007   0.000108
   51  C  4  S   -0.022431  -0.101664  -0.010463  -0.027771  -0.103275
   52  C  4  X   -0.009802  -0.035476  -0.025956   0.005187  -0.020851
   53  C  4  Y   -0.003695  -0.020616   0.033091   0.022323  -0.005205
   54  C  4  Z   -0.000000  -0.000004   0.000042   0.000012  -0.000004
   55  C  4 XX   -0.005329   0.004571  -0.008418   0.011530  -0.003439
   56  C  4 YY    0.007039  -0.000622   0.009468  -0.009429   0.012376
   57  C  4 ZZ    0.003605   0.010373   0.000679   0.000962   0.004683
   58  C  4 XY   -0.000029   0.001803   0.002613   0.016751   0.000497
   59  C  4 XZ    0.000005   0.000005   0.000007   0.000009   0.000005
   60  C  4 YZ    0.000003  -0.000012   0.000008  -0.000016   0.000005
   61  C  5  S   -0.071462  -0.019102   0.014709  -0.050619  -0.004367
   62  C  5  S    0.137780   0.039024  -0.029014   0.099845   0.005841
   63  C  5  X    0.046362   0.001127  -0.080984   0.103570   0.048567
   64  C  5  Y   -0.000854   0.020154   0.050588   0.096288  -0.029524
   65  C  5  Z   -0.000046  -0.000015   0.000089  -0.000107  -0.000178
   66  C  5  S    0.145778   0.042648  -0.036750   0.129176   0.035817
   67  C  5  X    0.011451   0.005851  -0.034899   0.035357   0.009096
   68  C  5  Y   -0.001474   0.003918   0.030036   0.032473  -0.018912
   69  C  5  Z   -0.000024   0.000075   0.000046   0.000034  -0.000145
   70  C  5 XX   -0.004015  -0.000093   0.003217  -0.005892  -0.000261
   71  C  5 YY    0.003347  -0.001420  -0.005911  -0.000036   0.002368
   72  C  5 ZZ    0.002692   0.001955   0.001270   0.008467  -0.001092
   73  C  5 XY   -0.004053  -0.001657   0.002615  -0.009278  -0.000894
   74  C  5 XZ    0.000010  -0.000006  -0.000044  -0.000012   0.000026
   75  C  5 YZ   -0.000018   0.000008   0.000070   0.000015  -0.000050
   76  N  6  S   -0.005720  -0.038864  -0.014739  -0.001023  -0.012042
   77  N  6  S    0.014696   0.086835   0.033532   0.001921   0.023320
   78  N  6  X    0.202642   0.078785   0.225427   0.193659   0.035721
   79  N  6  Y   -0.061588  -0.228459  -0.122949   0.280651  -0.147133
   80  N  6  Z   -0.000111  -0.000198  -0.000154   0.000122  -0.000108
   81  N  6  S    0.004696   0.117992   0.043600  -0.001139   0.061928
   82  N  6  X    0.102204   0.031130   0.111962   0.087342   0.035367
   83  N  6  Y   -0.032119  -0.116626  -0.066784   0.151459  -0.065741
   84  N  6  Z   -0.000059  -0.000099  -0.000074   0.000067  -0.000051
   85  N  6 XX    0.001353  -0.007327  -0.007416   0.004524  -0.015719
   86  N  6 YY    0.002082   0.009451   0.008632  -0.012373   0.016490
   87  N  6 ZZ   -0.000104  -0.001315  -0.000795  -0.000586  -0.001945
   88  N  6 XY    0.006098   0.005710   0.001892   0.001971   0.004211
   89  N  6 XZ    0.000008   0.000008   0.000007   0.000003   0.000009
   90  N  6 YZ   -0.000002   0.000001   0.000005  -0.000005   0.000012
[...]
   3            2     -453.6539421227     0.01187190
   4            2     -453.6130439120     0.02446438
   5            2     -453.6028390361     0.01778398
   6            2     -453.5981158472     0.01768933
   7            2     -453.5933691676     0.01141025
   8            2     -453.5490232199     0.03303514
   9            2     -453.5376721384     0.01638267
  10            2     -453.5201128376     0.01303720

 STATE      ITERATION      ENERGY         RESIDUE NORM
   1            3     -453.8730623044     0.00074297
   2            3     -453.6626901531     0.00450202
   3            3     -453.6542201825     0.00289366
   4            3     -453.6153449683     0.00670645
   5            3     -453.6035746174     0.00411609
   6            3     -453.5991915281     0.00709234
   7            3     -453.5937681319     0.00340818
   8            3     -453.5554869319     0.02216261
   9            3     -453.5393388368     0.01047534
  10            3     -453.5207432729     0.00593015

 STATE      ITERATION      ENERGY         RESIDUE NORM
   1            4     -453.8730628222     0.00007886
   2            4     -453.6627371436     0.00133913
   3            4     -453.6542354817     0.00078456
   4            4     -453.6154604548     0.00214259
   5            4     -453.6036061584     0.00100755
   6            4     -453.5992982318     0.00212522
   7            4     -453.5937956131     0.00099499
   8            4     -453.5568040880     0.00896100
   9            4     -453.5396619803     0.00357692
  10            4     -453.5209910756     0.00749192

 STATE      ITERATION      ENERGY         RESIDUE NORM
   1            5     -453.8730628271     0.00000702
   2            5     -453.6627396979     0.00026813
   3            5     -453.6542365280     0.00017111
   4            5     -453.6154684284     0.00049642
   5            5     -453.6036081857     0.00025950
   6            5     -453.5993079517     0.00065413
   7            5     -453.5937975216     0.00027448
   8            5     -453.5570392560     0.00420906
   9            5     -453.5397180778     0.00351864
  10            5     -453.5304364196     0.05542758

 STATE      ITERATION      ENERGY         RESIDUE NORM
   1            6     -453.8730628271     0.00000067
   2            6     -453.6627397930     0.00005068
   3            6     -453.6542365631     0.00001814
   4            6     -453.6154687484     0.00006401
   5            6     -453.6036082862     0.00004646
   6            6     -453.5993085261     0.00008379
   7            6     -453.5937977336     0.00011363
   8            6     -453.5570668321     0.00071589
   9            6     -453.5399407288     0.00901537
  10            6     -453.5385707586     0.01995032

 STATE      ITERATION      ENERGY         RESIDUE NORM
   1            7     -453.8730628271     0.00000006
   2            7     -453.6627397963     0.00001117
   3            7     -453.6542365634     0.00000238
   4            7     -453.6154687524     0.00000862
   5            7     -453.6036082888     0.00000727
   6            7     -453.5993085336     0.00001251
   7            7     -453.5937977510     0.00002259
   8            7     -453.5570675011     0.00014329
   9            7     -453.5402294763     0.00500392
  10            7     -453.5392234139     0.00510981

 STATE      ITERATION      ENERGY         RESIDUE NORM
   1            8     -453.8730628271     0.00000000
   2            8     -453.6627397964     0.00000223
   3            8     -453.6542365634     0.00000028
   4            8     -453.6154687525     0.00000116
   5            8     -453.6036082888     0.00000180
   6            8     -453.5993085337     0.00000175
   7            8     -453.5937977516     0.00000384
   8            8     -453.5570675290     0.00002405
   9            8     -453.5402691810     0.00138138
  10            8     -453.5392599422     0.00116743

 STATE      ITERATION      ENERGY         RESIDUE NORM
   1            9     -453.8730628271     0.00000000
   2            9     -453.6627397965     0.00000034
   3            9     -453.6542365634     0.00000003
   4            9     -453.6154687525     0.00000016
   5            9     -453.6036082889     0.00000036
   6            9     -453.5993085337     0.00000023
   7            9     -453.5937977516     0.00000076
   8            9     -453.5570675295     0.00000336
   9            9     -453.5402720662     0.00035795
  10            9     -453.5392619810     0.00029916

 STATE      ITERATION      ENERGY         RESIDUE NORM
   1           10     -453.8730628271     0.00000000
   2           10     -453.6627397965     0.00000005
   3           10     -453.6542365634     0.00000000
   4           10     -453.6154687525     0.00000002
   5           10     -453.6036082889     0.00000007
   6           10     -453.5993085337     0.00000003
   7           10     -453.5937977516     0.00000012
   8           10     -453.5570675295     0.00000048
   9           10     -453.5402722110     0.00006827
  10           10     -453.5392620854     0.00005896

 STATE      ITERATION      ENERGY         RESIDUE NORM
   1           11     -453.8730628271     0.00000000
   2           11     -453.6627397965     0.00000001
   3           11     -453.6542365634     0.00000000
   4           11     -453.6154687525     0.00000000
   5           11     -453.6036082889     0.00000001
   6           11     -453.5993085337     0.00000000
   7           11     -453.5937977516     0.00000002
   8           11     -453.5570675295     0.00000007
   9           11     -453.5402722153     0.00001093
  10           11     -453.5392620888     0.00000939

 STATE      ITERATION      ENERGY         RESIDUE NORM
   1           12     -453.8730628271     0.00000000
   2           12     -453.6627397965     0.00000000
   3           12     -453.6542365634     0.00000000
   4           12     -453.6154687525     0.00000000
   5           12     -453.6036082889     0.00000000
   6           12     -453.5993085337     0.00000000
   7           12     -453.5937977516     0.00000000
   8           12     -453.5570675295     0.00000001
   9           12     -453.5402722155     0.00000159
  10           12     -453.5392620889     0.00000139

 STATE      ITERATION      ENERGY         RESIDUE NORM
   1           13     -453.8730628271     0.00000000
   2           13     -453.6627397965     0.00000000
   3           13     -453.6542365634     0.00000000
   4           13     -453.6154687525     0.00000000
   5           13     -453.6036082889     0.00000000
   6           13     -453.5993085337     0.00000000
   7           13     -453.5937977516     0.00000000
   8           13     -453.5570675295     0.00000000
   9           13     -453.5402722155     0.00000024
  10           13     -453.5392620889     0.00000021

 STATE      ITERATION      ENERGY         RESIDUE NORM
   1           14     -453.8730628271     0.00000000
   2           14     -453.6627397965     0.00000000
   3           14     -453.6542365634     0.00000000
   4           14     -453.6154687525     0.00000000
   5           14     -453.6036082889     0.00000000
   6           14     -453.5993085337     0.00000000
   7           14     -453.5937977516     0.00000000
   8           14     -453.5570675295     0.00000000
   9           14     -453.5402722155     0.00000003
  10           14     -453.5392620889     0.00000003

   -------------------------------------------------
    MIXED-REFERENCE SPIN-FLIP CALCULATION CONVERGED
   -------------------------------------------------

 NUMBER OF USED VECTORS / MAX = 123 / 500
 NUMBER OF ITERATIONS   / MAX =  14 / 200
 NUMBER OF SINGLE EXCITATIONS =  3909
 NUMBER OF ATOMIC ORBITALS    = 147

     -----------------------------------
     SPIN-ADAPTED SPIN-FLIP EXCITATIONS
     -----------------------------------

 STATE #   1  ENERGY =   -3.399757 EV
 SYMMETRY OF STATE   =    A   
 S-SQUARED           =    0.0000
        DRF    COEF         OCC       VIR 
        ---    ----       ------    ------
         33 -0.058126        33  ->    33
         34  0.987998        34  ->    33
         67  0.067714        33  ->    34
        101 -0.060521        34  ->    35

 STATE #   2  ENERGY =    2.323423 EV
 SYMMETRY OF STATE   =    A   
 S-SQUARED           =    0.0000
        DRF    COEF         OCC       VIR 
        ---    ----       ------    ------
         23 -0.912048        23  ->    33
         32  0.256069        32  ->    33
         57  0.243957        23  ->    34
         66 -0.115401        32  ->    34
         90 -0.115280        23  ->    35

 STATE #   3  ENERGY =    2.554808 EV
 SYMMETRY OF STATE   =    A   
 S-SQUARED           =    0.0000
        DRF    COEF         OCC       VIR 
        ---    ----       ------    ------
         24  0.065996        24  ->    33
         33  0.977624        33  ->    33
         34  0.069455        34  ->    33
         64  0.058338        30  ->    34
         98  0.076245        31  ->    35
        101  0.083436        34  ->    35

 STATE #   4  ENERGY =    3.609734 EV
 SYMMETRY OF STATE   =    A   
 S-SQUARED           =    0.0000
        DRF    COEF         OCC       VIR 
        ---    ----       ------    ------
         27  0.099367        27  ->    33
         31  0.924073        31  ->    33
         58 -0.055365        24  ->    34
         61 -0.115029        27  ->    34
         64  0.073693        30  ->    34
         65 -0.204602        31  ->    34
         94  0.051402        27  ->    35
         98  0.122183        31  ->    35
        100  0.094656        33  ->    35
        101  0.174872        34  ->    35

 STATE #   5  ENERGY =    3.932473 EV
 SYMMETRY OF STATE   =    A   
 S-SQUARED           =    0.0000
        DRF    COEF         OCC       VIR 
        ---    ----       ------    ------
         23  0.268232        23  ->    33
         26 -0.055683        26  ->    33
         29 -0.058099        29  ->    33
         32  0.914201        32  ->    33
         57  0.103233        23  ->    34
         66  0.091670        32  ->    34
         90  0.102467        23  ->    35
         99  0.201912        32  ->    35
        135 -0.053963        34  ->    36

 STATE #   6  ENERGY =    4.049476 EV
 SYMMETRY OF STATE   =    A   
 S-SQUARED           =    0.0000
        DRF    COEF         OCC       VIR 
        ---    ----       ------    ------
         24 -0.056919        24  ->    33
         27 -0.062968        27  ->    33
         31  0.187904        31  ->    33
         33  0.102147        33  ->    33
         34 -0.054919        34  ->    33
        101 -0.937071        34  ->    35
        237 -0.153892        34  ->    39
        338 -0.052778        33  ->    42
        339  0.138585        34  ->    42

 STATE #   7  ENERGY =    4.199432 EV
 SYMMETRY OF STATE   =    A   
 S-SQUARED           =    0.0000
        DRF    COEF         OCC       VIR 
        ---    ----       ------    ------
         32 -0.051243        32  ->    33
        134 -0.103426        33  ->    36
        135 -0.958153        34  ->    36
        169  0.127717        34  ->    37
        203  0.087173        34  ->    38
        271 -0.113235        34  ->    40
        305  0.123671        34  ->    41
        441 -0.052762        34  ->    45

 STATE #   8  ENERGY =    5.198912 EV
 SYMMETRY OF STATE   =    A   
 S-SQUARED           =    0.0000
        DRF    COEF         OCC       VIR 
        ---    ----       ------    ------
         21 -0.178267        21  ->    33
         24  0.138992        24  ->    33
         30 -0.791574        30  ->    33
         31  0.062086        31  ->    33
         61 -0.160717        27  ->    34
         64 -0.143238        30  ->    34
         65 -0.074395        31  ->    34
         67 -0.060180        33  ->    34
         88  0.050322        21  ->    35
         97 -0.058456        30  ->    35
        100 -0.310769        33  ->    35
        101 -0.132924        34  ->    35
        237  0.290641        34  ->    39
        339 -0.193740        34  ->    42

 STATE #   9  ENERGY =    5.655936 EV
 SYMMETRY OF STATE   =    A   
 S-SQUARED           =    0.0000
        DRF    COEF         OCC       VIR 
        ---    ----       ------    ------
         18 -0.058033        18  ->    33
         23  0.066333        23  ->    33
         26  0.160548        26  ->    33
         28 -0.381668        28  ->    33
         29  0.553528        29  ->    33
         57  0.216974        23  ->    34
         63 -0.061516        29  ->    34
         90 -0.115645        23  ->    35
         99  0.117776        32  ->    35
        135 -0.121119        34  ->    36
        169 -0.569652        34  ->    37
        226 -0.058318        23  ->    39
        271  0.198771        34  ->    40
        305 -0.112064        34  ->    41
        328  0.069638        23  ->    42
        441 -0.053536        34  ->    45

 STATE #  10  ENERGY =    5.683423 EV
 SYMMETRY OF STATE   =    A   
 S-SQUARED           =    0.0000
        DRF    COEF         OCC       VIR 
        ---    ----       ------    ------
         23  0.056554        23  ->    33
         25 -0.066158        25  ->    33
         26  0.090160        26  ->    33
         28 -0.360518        28  ->    33
         29  0.438789        29  ->    33
         57  0.169423        23  ->    34
         63 -0.054465        29  ->    34
         90 -0.087838        23  ->    35
         99  0.101417        32  ->    35
        135  0.111373        34  ->    36
        169  0.710605        34  ->    37
        271 -0.207116        34  ->    40
        305  0.104624        34  ->    41
        328  0.055637        23  ->    42
        441  0.086495        34  ->    45

          ----------------------------
          SUMMARY OF MRSF-DFT RESULTS
          ----------------------------

   STATE             ENERGY     EXCITATION      <S^2>    TRANSITION DIPOLE, A.U.  OSCILLATOR
                    HARTREE         EV                      X        Y        Z    STRENGTH

 1 NEGATIVE ROOT(S) FOUND.
   1  A         -453.8730628271   -3.400        0.0000   0.0000   0.0000   0.0000   0.0000
   0  A         -453.7481240366    0.000               (REFERENCE STATE)
   2  A         -453.6627397965    2.323        0.0000  -0.0025   0.0009  -0.1014   0.0014
   3  A         -453.6542365634    2.555        0.0000   0.0940   1.4713   0.0017   0.3171
   4  A         -453.6154687525    3.610        0.0000  -0.4229  -1.5613   0.0004   0.4493
   5  A         -453.6036082889    3.932        0.0000  -0.0290  -0.0114  -0.0459   0.0006
   6  A         -453.5993085337    4.049        0.0000   1.7214   0.5017  -0.0017   0.5868
   7  A         -453.5937977516    4.199        0.0000   0.0026   0.0028   0.0025   0.0000
   8  A         -453.5570675295    5.199        0.0000  -0.7045   0.1448  -0.0019   0.1090
   9  A         -453.5402722155    5.656        0.0000  -0.0169   0.0139   0.0374   0.0004
  10  A         -453.5392620889    5.683        0.0000   0.0154  -0.0129  -0.1460   0.0048
  
 TRANSITION        EXCITATION            TRANSITION DIPOLE, A.U.     OSCILLATOR
                       EV              X       Y       Z       DIP    STRENGTH

  1  ->  2           5.723          0.0054  0.0520 -0.1107   0.1225    0.0021
  1  ->  3           5.955          0.1712  2.1482  0.0039   2.1550    0.6775
  1  ->  4           7.009         -0.1831 -0.3099 -0.0003   0.3600    0.0223
  1  ->  5           7.332         -0.0217 -0.0084 -0.0247   0.0339    0.0002
  1  ->  6           7.449          1.3352  0.0944 -0.0045   1.3385    0.3270
  1  ->  7           7.599          0.0025  0.0038  0.0158   0.0164    0.0001
  1  ->  8           8.599         -0.5650  0.0522  0.0078   0.5675    0.0678
  1  ->  9           9.056         -0.0336 -0.0107 -0.1469   0.1511    0.0051
  1  -> 10           9.083          0.0281  0.0152  0.0196   0.0375    0.0003
  2  ->  3           0.231         -0.0051  0.0716  0.0185   0.0741    0.0000
  2  ->  4           1.286          0.0140  0.0200  0.0492   0.0550    0.0001
  2  ->  5           1.609         -0.6239 -0.3973 -0.0004   0.7397    0.0216
  2  ->  6           1.726          0.0054 -0.0260  0.0198   0.0331    0.0000
  2  ->  7           1.876          0.0355  0.0282 -0.0013   0.0454    0.0001
  2  ->  8           2.875         -0.0070 -0.0171  0.0145   0.0234    0.0000
  2  ->  9           3.333          0.1619 -0.2898  0.0001   0.3320    0.0090
  2  -> 10           3.360          0.1058 -0.2179 -0.0002   0.2423    0.0048
  3  ->  4           1.055          0.7201  0.6933 -0.0002   0.9997    0.0258
  3  ->  5           1.378         -0.0026  0.0153 -0.0262   0.0304    0.0000
  3  ->  6           1.495          0.5484 -0.9887  0.0008   1.1306    0.0468
  3  ->  7           1.645          0.0197 -0.0209 -0.0485   0.0564    0.0001
  3  ->  8           2.644         -0.8200 -0.9340 -0.0034   1.2429    0.1001
  3  ->  9           3.101         -0.0845  0.0901  0.0017   0.1236    0.0012
  3  -> 10           3.129          0.1069 -0.1071 -0.0224   0.1530    0.0018
  4  ->  5           0.323         -0.0182 -0.0136  0.0438   0.0493    0.0000
  4  ->  6           0.440          0.8159  0.0816  0.0003   0.8200    0.0072
  4  ->  7           0.590         -0.0104 -0.0067 -0.0140   0.0187    0.0000
  4  ->  8           1.589          0.1974 -0.2306 -0.0007   0.3036    0.0036
  4  ->  9           2.046          0.0288  0.0518 -0.0211   0.0629    0.0002
  4  -> 10           2.074         -0.0321 -0.0437 -0.0357   0.0649    0.0002
  5  ->  6           0.117          0.0755  0.0303  0.0167   0.0831    0.0000
  5  ->  7           0.267         -0.1827 -0.2797 -0.0006   0.3341    0.0007
  5  ->  8           1.266          0.0054 -0.0074  0.0336   0.0348    0.0000
  5  ->  9           1.723          0.6366  0.2533  0.0008   0.6852    0.0198
  5  -> 10           1.751          0.5214  0.1889 -0.0020   0.5546    0.0132
  6  ->  7           0.150          0.0343  0.0357  0.0481   0.0690    0.0000
  6  ->  8           1.149         -0.6518 -0.1220  0.0084   0.6632    0.0124
  6  ->  9           1.606         -0.1618 -0.1710 -0.0601   0.2429    0.0023
  6  -> 10           1.634          0.2204  0.2094  0.1064   0.3221    0.0042
  7  ->  8           0.999          0.0551 -0.0364  0.0135   0.0674    0.0001
  7  ->  9           1.457         -0.6108 -0.0405 -0.0020   0.6121    0.0134
  7  -> 10           1.484          0.6085 -0.1339  0.0023   0.6231    0.0141
  8  ->  9           0.457          0.0133  0.0062  0.0669   0.0685    0.0001
  8  -> 10           0.485         -0.0123  0.0096 -0.1012   0.1024    0.0001
  9  -> 10           0.027          0.8990 -0.4228  0.0027   0.9934    0.0007
 
 SELECTING EXCITED STATE IROOT=   1 AT E=     -453.8730628271
 AS THE STATE OF INTEREST.

 ..... DONE WITH MRSFDFT EXCITATION ENERGIES .....
 CPU     0: STEP CPU TIME=   174.29 TOTAL CPU TIME=        184.2 (      3.1 MIN)
 TOTAL WALL CLOCK TIME=        196.9 SECONDS, CPU UTILIZATION IS    93.52%
              16931038  WORDS OF DYNAMIC MEMORY USED
 EXECUTION OF GAMESS TERMINATED NORMALLY Wed Apr 12 08:28:07 2023
 DDI: 263640 bytes (0.3 MB / 0 MWords) used by master data server.

 ----------------------------------------
 CPU timing information for all processes
 ========================================
 0: 177.881 + 6.317 = 184.198
 1: 177.833 + 3.851 = 181.685
 2: 176.590 + 5.429 = 182.19
 3: 176.628 + 3.953 = 180.582
 4: 176.732 + 6.622 = 183.355
 5: 176.360 + 3.969 = 180.329
 6: 175.661 + 5.862 = 181.524
 7: 175.772 + 3.664 = 179.436
 8: 175.531 + 6.379 = 181.911
 9: 174.757 + 3.148 = 177.905
 10: 174.210 + 4.610 = 178.820
 11: 174.508 + 3.13 = 177.521
 12: 174.418 + 5.821 = 180.239
 13: 174.862 + 3.144 = 178.07
 14: 174.516 + 4.799 = 179.316
 15: 174.358 + 3.82 = 177.440
 ----------------------------------------
 ddikick.x: exited gracefully.
