
 Distributed Data Interface kickoff program.
 Initiating 28 compute processes on 1 nodes to run the following command:
 /home/share/local/sbin/gamess/gamess.konst.x butadiene-gradnac-mrsf-singlet_step_0 

          *******************************************************
          *                                                     *
          *          GAMESS VERSION = 30 JUN 2023 (R1)          *
          *                                                     *
          *              doi.org/10.1063/5.0005188              *
          *                                                     *
          **************** 64 BIT LINUX VERSION *****************
 
           git commit: 6c9a940737b8c224b86e735de428d409fbad2446
 

  GAMESS HAS BEEN MADE POSSIBLE WITH IMPORTANT CONTRIBUTIONS FROM
  THE FOLLOWING INDIVIDUALS (IN ALPHABETICAL ORDER):

     IVANA ADAMOVIC, CHRISTINE AIKENS, TOMOKO AKAMA,
     MELISA ALKAN, YURI ALEXEEV, YURIKO AOKI, POOJA ARORA,
     TOSHIO ASADA, ANDREY ASADCHEV, KIM K. BALDRIDGE,
     PRADIPTA BANDYOPADHYAY, TAYLOR A. BARNES, MARIA BARYSZ,
     ROB BELL, JONATHAN BENTZ, COLLEEN BERTONI,
     JERRY A. BOATZ, BRETT BODE, KURT BRORSEN, KURT R. BRORSEN,
     LAIMUTIS BYTAUTAS, CALEB CARLIN, LAURA CARRINGTON,
     GALINA CHABAN, BENOIT CHAMPAGNE, WEI CHEN, MAHITO CHIBA,
     DAN CHIPMAN, CHEOL HO CHOI, TANNER CULPITT,
     DIPAYAN DATTA, PAUL DAY, ALBERT DEFUSCO,
     NUWAN DESILVA, J. EMILIANO DEUSTUA,
     TIM DUDLEY, MICHEL DUPUIS, STEVEN T. ELBERT,
     DMITRI FEDOROV, KATHERINE FERRERAS, MICHAEL FILATOV,
     ALEX FINDLATER,GRAHAM FLETCHER, MARK FREITAG,
     CHRISTIAN FRIEDL, DAVID GARMER, 
     IGOR S. GERASIMOV, KURT GLAESEMANN,
     MARK S. GORDON, JEFFREY R. GOUR, FENG LONG GU,
     EMILIE B. GUIDEZ, ANASTASIA GUNINA, SHARON HAMMES-SCHIFFER,
     MASATAKE HARUTA, KIMIHIKO HIRAO, YASUHIRO IKABATA,
     TZVETELIN IORDANOV, STEPHAN IRLE, KAZUYA ISHIMURA,
     JOE IVANIC, FRANK JENSEN, JAN H. JENSEN, VISVALDAS KAIRYS,
     MUNEAKI KAMIYA, MICHIO KATOUDA, NAOAKI KAWAKAMI, DAN KEMP,
     BERNARD KIRTMAN, KAZUO KITAURA, MARIUSZ KLOBUKOWSKI,
     MASATO KOBAYASHI, KONSTANTIN KOMAROV, PRAKASHAN KORAMBATH,
     JACEK KORCHOWIEC, SHIRO KOSEKI, KAROL KOWALSKI,
     JIMMY KROMANN, STANISLAW A. KUCHARSKI, HENRY KURTZ,
     SAROM SOK LEANG, SEUNGHOON LEE, HUI LI, SHUHUA LI, WEI LI,
     JESSE J. LUTZ, ALEKSANDR O. LYKHIN,
     ILIAS MAGOULAS, MARCIN MAKOWSKI,
     JOANI MATO, NIKITA MATSUNAGA, BENEDETTA MENNUCCI,
     GRANT MERRILL, NORIYUKI MINEZAWA, VLADIMIR MIRONOV,
     EISAKU MIYOSHI, JOHN A. MONTGOMERY JR., HIROTOSHI MORI,
     JONATHAN MULLIN, MONIKA MUSIAL, SHIGERU NAGASE,
     TAKESHI NAGATA, HIROMI NAKAI, TAKAHITO NAKAJIMA,
     YUYA NAKAJIMA, HARUYUKI NAKANO, HIROYA NAKATA, SEAN NEDD,
     HEATHER NETZLOFF, KIET A. NGUYEN, YOSHIO NISHIMOTO,
     BOSILJKA NJEGIC, RYAN OLSON, MIKE PAK, ROBERTO PEVERATI,
     BUU PHAM, PIOTR PIECUCH, ANNA POMOGAEVA, DAVID POOLE,
     SPENCER PRUITT, OLIVIER QUINET, LUKE ROSKOP,
     KLAUS RUEDENBERG, ANDREW SAND, TOSAPORN SATTASATHUCHANA,
     NOZOMI SAWADA, MICHAEL W. SCHMIDT, PATRICK E. SCHNEIDER,
     JUNJI SEINO, PRACHI SHARMA, JUN SHEN, JIM SHOEMAKER,
     YINAN SHU, DEJUN SI, JONATHAN SKONE, LYUDMILA SLIPCHENKO,
     TONY SMITH, JIE SONG, MARK SPACKMAN, CASPER STEINMANN,
     WALT STEVENS, PEIFENG SU, SHUJUN SU, CHET SWALINA,
     CHINAMI TAKASHIMA, TETSUYA TAKETSUGU, ZHEN TAO,
     NANDUN THELLAMUREGE, SEIKEN TOKURA, JACOPO TOMASI,
     TSUGUKI TOUMA, TAKAO TSUNEDA, HIROAKI UMEDA,
     JORGE LUIS GALVEZ VALLEJO, YALI WANG, SIMON WEBB,
     AARON WEST, THERESA L. WINDUS, MARTA WLOCH,
     PENG XU, KIYOSHI YAGI, SUSUMU YANAGISAWA, YANG YANG,
     SOOHAENG YOO, TAKESHI YOSHIKAWA, FEDERICO ZAHARIEV,
     TOBY ZENG

  WHO ARE SUPPORTED BY THEIR INSTITUTION/UNIVERSITY/COMPANY/GROUP
  (IN ALPHABETICAL ORDER):

     EP ANALYTICS,
     FACULTES UNIVERSITAIRES NOTRE-DAME DE LA PAIX,
     INSTITUTE FOR MOLECULAR SCIENCE, IOWA STATE UNIVERSITY,
     JACKSON STATE UNIVERSITY, JOHANNES KEPLER UNIVERSITY LINZ,
     KYUNGPOOK NATIONAL UNIVERSITY
     KYUSHU UNIVERSITY, MICHIGAN STATE UNIVERSITY,
     MIE UNIVERSITY, THE MOLECULAR SCIENCES SOFTWARE INSTITUTE,
     MOSCOW STATE UNIVERSITY,
     N. COPERNICUS UNIVERSITY, NAGOYA UNIVERSITY,
     NANJING UNIVERSITY, NAT. INST. OF ADVANCED INDUSTRIAL
     SCIENCE AND TECHNOLOGY, NATIONAL INST. OF STANDARDS AND
     TECHNOLOGY, NESMEYANOV INSTITUTE OF ORGANOELEMENT COMPOUNDS
     OF RUSSIAN ACADEMY OF SCIENCES, OSAKA PREFECTURE UNIVERSITY,
     PENNSYLVANIA STATE UNIVERSITY, TOKYO INSTITUTE OF TECHNOLOGY,
     UNIVERSITY OF AARHUS, UNIVERSITY OF ALBERTA,
     UNIVERSITY OF CALIFORNIA AT SANTA BARBARA,
     UNIVERSITY OF COPENHAGEN, UNIVERSITY OF IOWA,
     UNIVERSITY OF MEMPHIS, UNIVERSITY OF MINNESOTA,
     UNIVERSITY OF NEBRASKA, UNIVERSITY OF NEW ENGLAND,
     UNIVERSITY OF NOTRE DAME, UNIVERSITY OF PISA,
     UNIVERSITY OF SILESIA, UNIVERSITY OF TOKYO,
     UNIVERSITY OF ZURICH, WASEDA UNIVERSITY,
     YALE UNIVERSITY

  GAMESS SOFTWARE MANAGEMENT TEAM FOR THIS RELEASE:
     MARK S. GORDON (TEAM LEAD),
     BRETT BODE (SENIOR ADVISOR),
     GIUSEPPE BARCA,
     COLLEEN BERTONI,
     KRISTOPHER KEIPERT (ADVISOR),
     SAROM S. LEANG (DEVELOPMENT LEAD),
     BUU PHAM,
     JACKSON HAYES (WEBSITE ADMINISTRATOR),
     PENG XU


 PARALLEL VERSION RUNNING ON       28 PROCESSORS IN        1 NODES.

 EXECUTION OF GAMESS BEGUN 15:45:36 15-AUG-2023    

            ECHO OF THE FIRST FEW INPUT CARDS -
 INPUT CARD> $CONTRL SCFTYP=ROHF RUNTYP=GRADNAC DFTTYP=BHHLYP ICHARG=0                      
 INPUT CARD>         TDDFT=MRSF   MAXIT=200 MULT=3 NPRINT=7 COORD=UNIQUE     $END           
 INPUT CARD> $DFT SG1=.T.                                                    $END           
 INPUT CARD> $scf  dirscf=.f. nconv=6 npunch=2                               $END           
 INPUT CARD> $TDDFT NSTATE=3 IROOT=2 TAMMD=.t. MULT=1                        $END           
 INPUT CARD> $BASIS GBASIS=N31 NGAUSS=6                                      $END           
 INPUT CARD> $system timlim=999999100 mwords=500                             $END           
 INPUT CARD> $GUESS GUESS=MOREAD NORB=26                                     $END           
 INPUT CARD> $data                                                                          
 INPUT CARD> BUTADIENE                                                                      
 INPUT CARD> C1                                                                             
 INPUT CARD>C           6.0        1.6061813124        1.5137823403       -1.8532304826     
 INPUT CARD>C           6.0        1.8297205990        2.1532622299       -2.9306336720     
 INPUT CARD>H           1.0        0.7837299323        1.8554701101       -1.2254340077     
 INPUT CARD>H           1.0        2.0660759361        0.5856132304       -1.5511271763     
 INPUT CARD>H           1.0        1.3951698698        3.0534395286       -3.1447814659     
 INPUT CARD>H           1.0        2.3888191426        1.8772741027       -3.7592528319     
 INPUT CARD> $END                                                                           
 INPUT CARD> $VEC                                                                           
 INPUT CARD> 1  1 9.93471242E-01 3.15101138E-02-6.14798547E-05 4.51415341E-04-9.22832185E-04
 INPUT CARD> 1  2-2.40945995E-02 5.34971985E-05-1.72808555E-03 2.61604942E-03 6.19633173E-02
 INPUT CARD> 1  3 7.85835875E-05 2.01909669E-04 5.89138436E-04-9.81351115E-04 8.59043581E-03
 INPUT CARD> 1  4-8.98842758E-04-2.22165109E-03 3.87270141E-03-6.17641915E-04 4.15254046E-03
 INPUT CARD> 1  5-7.08093848E-04 3.68505811E-03-2.63494513E-04 4.61551754E-04-2.99592615E-04
 INPUT CARD> 1  6 6.41039183E-04                                                            
 INPUT CARD> 2  1-6.26264346E-02-3.87738538E-03-1.87687353E-04-6.25292633E-04 1.06577417E-03
 INPUT CARD> 2  2 1.09417468E-02 6.72479395E-04 2.41029378E-03-3.88598382E-03 9.93452220E-01
 INPUT CARD> 2  3 3.21523255E-02-3.54171261E-04-3.53974546E-04 6.68622182E-04-2.57239259E-02
 INPUT CARD> 2  4 9.38075049E-04 1.01546748E-03-2.29201209E-03-1.55751970E-04-4.09228576E-05
 INPUT CARD> 2  5-1.82471823E-04 1.29871723E-04-7.65591496E-04 4.72233057E-03-7.59799372E-04
 INPUT CARD> 2  6 4.12314439E-03                                                            
 INPUT CARD> 3  1-1.59005059E-01 3.12239539E-01 1.46033961E-02 7.15921063E-02-1.22113299E-01
 INPUT CARD> 3  2 2.05593453E-01-3.02015116E-03 3.20604866E-03-7.57630286E-03-1.66301535E-01
 INPUT CARD> 3  3 3.24572837E-01-3.17360964E-02-5.96324307E-02 1.08548343E-01 2.06930366E-01
 INPUT CARD> 3  4-2.26226773E-03-3.00209743E-04 1.83669753E-03 7.82959017E-02 1.63879986E-02
 INPUT CARD> 3  5 7.27768844E-02 1.36623420E-02 9.04616660E-02 1.73699292E-02 8.20517579E-02
 INPUT CARD> 3  6 1.38676488E-02                                                            
 INPUT CARD> 4  1 1.25205001E-01-2.46953916E-01 3.08483255E-02 7.31946798E-02-9.77876519E-02
 INPUT CARD> 4  2-2.59820804E-01 9.94552119E-03 2.52256381E-02-2.28110978E-02-1.17207805E-01
 INPUT CARD> 4  3 2.32031002E-01 2.43417318E-02 1.11769388E-01-1.80858415E-01 2.43342545E-01
 INPUT CARD> 4  4 4.78501876E-03 2.15298932E-02-4.67101112E-02-1.33013424E-01-6.18753174E-02
 INPUT CARD> 4  5-1.43567535E-01-6.35062207E-02 1.64967421E-01 7.50105503E-02 1.62518258E-01
 INPUT CARD> 4  6 7.12399312E-02                                                            
 INPUT CARD> 5  1 4.26164095E-03-9.29070411E-03-2.22668074E-01 2.44487739E-01 4.81300747E-02
 INPUT CARD> 5  2-1.77194208E-02-9.28086359E-02 9.40476766E-02 1.69517957E-02 5.63974761E-03
 INPUT CARD> 5  3-1.24073461E-02-2.11616307E-01 2.25359428E-01 1.41711318E-01-2.05020883E-02
 INPUT CARD> 5  4-7.56957191E-02 8.73481020E-02 5.70086173E-02 1.41981294E-01 9.32695292E-02
 INPUT CARD> 5  5-1.60532660E-01-1.01919902E-01 1.38965860E-01 9.03241615E-02-1.65513394E-01
 INPUT CARD> 5  6-1.05591061E-01                                                            
 INPUT CARD> 6  1 4.95264913E-03-1.88742371E-03 1.13811866E-01 2.02670701E-01-3.57718332E-01
    500000000 WORDS OF MEMORY AVAILABLE

 WARNING: LARGE MAXIT:      200

     BASIS OPTIONS
     -------------
     GBASIS=N31          IGAUSS=       6      POLAR=NONE    
     NDFUNC=       0     NFFUNC=       0     DIFFSP=       F
     NPFUNC=       0      DIFFS=       F     BASNAM=        


     RUN TITLE
     ---------
  BUTADIENE                                                                      

 THE POINT GROUP OF THE MOLECULE IS C1      
 THE ORDER OF THE PRINCIPAL AXIS IS     0

 ATOM      ATOMIC                      COORDINATES (BOHR)
           CHARGE         X                   Y                   Z
 C           6.0     3.0352425670        2.8606338282       -3.5020978042
 C           6.0     3.4576705662        4.0690755942       -5.5380946105
 H           1.0     1.4810348204        3.5063300865       -2.3157344906
 H           1.0     3.9043173891        1.1066485402       -2.9312053353
 H           1.0     2.6364887602        5.7701640291       -5.9427752618
 H           1.0     4.5142136137        3.5475336579       -7.1039577709

          INTERNUCLEAR DISTANCES (ANGS.)
          ------------------------------

                1 C          2 C          3 H          4 H          5 H     

   1 C       0.0000000    1.2726751 *  1.0896354 *  1.0790122 *  2.0206865 *
   2 C       1.2726751 *  0.0000000    2.0224941 *  2.1015293 *  1.0222587 *
   3 H       1.0896354 *  2.0224941 *  0.0000000    1.8338549 *  2.3436903 *
   4 H       1.0790122 *  2.1015293 *  1.8338549 *  0.0000000    3.0133064  
   5 H       2.0206865 *  1.0222587 *  2.3436903 *  3.0133064    0.0000000  
   6 H       2.0922642 *  1.0370006 *  2.9995041 *  2.5784433 *  1.6577934 *

                6 H     

   1 C       2.0922642 *
   2 C       1.0370006 *
   3 H       2.9995041 *
   4 H       2.5784433 *
   5 H       1.6577934 *
   6 H       0.0000000  

  * ... LESS THAN  3.000


     ATOMIC BASIS SET
     ----------------
 THE CONTRACTED PRIMITIVE FUNCTIONS HAVE BEEN UNNORMALIZED
 THE CONTRACTED BASIS FUNCTIONS ARE NOW NORMALIZED TO UNITY

  SHELL TYPE  PRIMITIVE        EXPONENT          CONTRACTION COEFFICIENT(S)

 C         

      1   S       1          3047.5248800    0.001834737132
      1   S       2           457.3695180    0.014037322813
      1   S       3           103.9486850    0.068842622264
      1   S       4            29.2101553    0.232184443216
      1   S       5             9.2866630    0.467941348435
      1   S       6             3.1639270    0.362311985337

      2   L       7             7.8682723   -0.119332419775    0.068999066591
      2   L       8             1.8812885   -0.160854151696    0.316423960957
      2   L       9             0.5442493    1.143456437840    0.744308290898

      3   L      10             0.1687145    1.000000000000    1.000000000000

 C         

      4   S      11          3047.5248800    0.001834737132
      4   S      12           457.3695180    0.014037322813
      4   S      13           103.9486850    0.068842622264
      4   S      14            29.2101553    0.232184443216
      4   S      15             9.2866630    0.467941348435
      4   S      16             3.1639270    0.362311985337

      5   L      17             7.8682723   -0.119332419775    0.068999066591
      5   L      18             1.8812885   -0.160854151696    0.316423960957
      5   L      19             0.5442493    1.143456437840    0.744308290898

      6   L      20             0.1687145    1.000000000000    1.000000000000

 H         

      7   S      21            18.7311370    0.033494604338
      7   S      22             2.8253944    0.234726953484
      7   S      23             0.6401217    0.813757326146

      8   S      24             0.1612778    1.000000000000

 H         

      9   S      25            18.7311370    0.033494604338
      9   S      26             2.8253944    0.234726953484
      9   S      27             0.6401217    0.813757326146

     10   S      28             0.1612778    1.000000000000

 H         

     11   S      29            18.7311370    0.033494604338
     11   S      30             2.8253944    0.234726953484
     11   S      31             0.6401217    0.813757326146

     12   S      32             0.1612778    1.000000000000

 H         

     13   S      33            18.7311370    0.033494604338
     13   S      34             2.8253944    0.234726953484
     13   S      35             0.6401217    0.813757326146

     14   S      36             0.1612778    1.000000000000

 TOTAL NUMBER OF BASIS SET SHELLS             =   14
 NUMBER OF CARTESIAN GAUSSIAN BASIS FUNCTIONS =   26
 NUMBER OF ELECTRONS                          =   16
 CHARGE OF MOLECULE                           =    0
 SPIN MULTIPLICITY                            =    3
 NUMBER OF OCCUPIED ORBITALS (ALPHA)          =    9
 NUMBER OF OCCUPIED ORBITALS (BETA )          =    7
 TOTAL NUMBER OF ATOMS                        =    6
 THE NUCLEAR REPULSION ENERGY IS       34.5532521966

 SELECTED MURRAY-HANDY-LAMING RADIAL GRID

 LEGACY BECKE'S FUZZY CELL METHOD

 SELECTED ORIGINAL BECKE'S PARTITION FUNCTION

     STANDARD GRID ONE (SG-1) PRUNED GRID OPTIONS
     -------------------------------------------
     DFTTYP=BHHLYP  
     GRID HAS 50 RADIAL POINTS AND AT MOST
      194 ANGULAR POINTS, BEFORE PRUNING
     SWOFF =    5.00E-03 (PURE SCF -> DFT)
     COARSE GRID SWITCHING IS NOT AVAILABLE
     THRESH=    0.00E+00 GTHRE=    1.00E+00

 GRIMME'S EMPIRICAL DISPERSION CORRECTION= F

     $CONTRL OPTIONS
     ---------------
 SCFTYP=ROHF         RUNTYP=GRADNAC      EXETYP=RUN     
 MPLEVL=       0     CITYP =NONE         CCTYP =NONE         VBTYP =NONE    
 DFTTYP=BHHLYP       TDDFT =MRSF    
 MULT  =       3     ICHARG=       0     NZVAR =       0     COORD =UNIQUE  
 PP    =NONE         RELWFN=NONE         LOCAL =NONE         NUMGRD=       F
 ISPHER=      -1     NOSYM =       0     MAXIT =     200     UNITS =ANGS    
 PLTORB=       F     MOLPLT=       F     AIMPAC=       F     FRIEND=        
 NPRINT=       7     IREST =       0     GEOM  =INPUT   
 NORMF =       0     NORMP =       0     ITOL  =      20     ICUT  =       9
 INTTYP=BEST         GRDTYP=BEST         QMTTOL= 1.0E-06

     $SYSTEM OPTIONS
     ---------------
  REPLICATED MEMORY=   500000000 WORDS (ON EVERY NODE).
 DISTRIBUTED MEMDDI=           0 MILLION WORDS IN AGGREGATE,
 MEMDDI DISTRIBUTED OVER  28 PROCESSORS IS           0 WORDS/PROCESSOR.
 TOTAL MEMORY REQUESTED ON EACH PROCESSOR=   500000000 WORDS.
 TIMLIM=   999999100.00 MINUTES, OR  694443.8 DAYS.
 PARALL= T  BALTYP=  DLB     KDIAG=    0  COREFL= F
 MXSEQ2=     300 MXSEQ3=     150  mem10=         0  mem22=         0

          ----------------
          PROPERTIES INPUT
          ----------------

     MOMENTS            FIELD           POTENTIAL          DENSITY
 IEMOM =       1   IEFLD =       0   IEPOT =       0   IEDEN =       0
 WHERE =COMASS     WHERE =NUCLEI     WHERE =NUCLEI     WHERE =NUCLEI  
 OUTPUT=BOTH       OUTPUT=BOTH       OUTPUT=BOTH       OUTPUT=BOTH    
 IEMINT=       0   IEFINT=       0                     IEDINT=       0
                                                       MORB  =       0
          EXTRAPOLATION IN EFFECT
          DIIS IN EFFECT
 ORBITAL PRINTING OPTION: NPREO=     1    26     2     1

     -------------------------------
     INTEGRAL TRANSFORMATION OPTIONS
     -------------------------------
     NWORD  =            0
     CUTTRF = 1.0E-09     MPTRAN =       0
     DIRTRF =       F     AOINTS =DUP     

          ----------------------
          INTEGRAL INPUT OPTIONS
          ----------------------
 NOPK  =       1 NORDER=       0 SCHWRZ=       T

          ----------------------
          TDDFT INPUT PARAMETERS
          ----------------------
 NSTATE=       3 IROOT =       2 MULT  =       1
 MAXVEC=      50 NTRIAL=       1 CNVTOL=  1.00E-07
 TDPRP =       F TRNSD =       F UNRLX =       F
 ALTRN =       F FED   =       F
 IFEDAT=       0       0       0       0
 TAMMD =       T TPA   =       F
 ALPHA =       F BETA  =       F
 PFREQ =    0.00    0.00
   NRAD=      48   NLEB=     110

     ------------------------------------------
     THE POINT GROUP IS C1 , NAXIS= 0, ORDER= 1
     ------------------------------------------

     DIMENSIONS OF THE SYMMETRY SUBSPACES ARE
 A   =   26

 ..... DONE SETTING UP THE RUN .....
 CPU     0: STEP CPU TIME=     0.039 TOTAL CPU TIME=        0.041 (     0.001 MIN)
 TOTAL WALL CLOCK TIME=        0.173 SECONDS, CPU UTILIZATION IS    23.922%

                    --------------------------------
                    SINGLE POINT ENERGY AND GRADIENT
                    --------------------------------

          ********************
          1 ELECTRON INTEGRALS
          ********************
 ...... END OF ONE-ELECTRON INTEGRALS ......
 CPU     0: STEP CPU TIME=     0.001 TOTAL CPU TIME=        0.042 (     0.001 MIN)
 TOTAL WALL CLOCK TIME=        0.175 SECONDS, CPU UTILIZATION IS    23.857%

          -------------
          GUESS OPTIONS
          -------------
          GUESS =MOREAD            NORB  =      26          NORDER=       0
          MIX   =       F          PRTMO =       F          PUNMO =       F
          TOLZ  = 1.0E-08          TOLE  = 1.0E-05
          SYMDEN=       F          PURIFY=       F

 INITIAL GUESS ORBITALS GENERATED BY MOREAD   ROUTINE.

 SYMMETRIES FOR INITIAL GUESS ORBITALS FOLLOW.  ALPHA SET(S).
     9 ORBITALS ARE OCCUPIED (    2 CORE ORBITALS).
     3=A        4=A        5=A        6=A        7=A        8=A        9=A   
    10=A       11=A       12=A       13=A       14=A       15=A       16=A   
    17=A       18=A       19=A   

 SYMMETRIES FOR INITIAL GUESS ORBITALS FOLLOW.   BETA SET(S).
     7 ORBITALS ARE OCCUPIED (    2 CORE ORBITALS).
     3=A        4=A        5=A        6=A        7=A        8=A        9=A   
    10=A       11=A       12=A       13=A       14=A       15=A       16=A   
    17=A   
 ...... END OF INITIAL ORBITAL SELECTION ......
 CPU     0: STEP CPU TIME=     0.002 TOTAL CPU TIME=        0.044 (     0.001 MIN)
 TOTAL WALL CLOCK TIME=        0.184 SECONDS, CPU UTILIZATION IS    23.885%

                    ----------------------
                    AO INTEGRAL TECHNOLOGY
                    ----------------------
     S,P,L SHELL ROTATED AXIS INTEGRALS, REPROGRAMMED BY
        KAZUYA ISHIMURA (IMS) AND JOSE SIERRA (SYNSTAR).
     S,P,D,L SHELL ROTATED AXIS INTEGRALS PROGRAMMED BY
        KAZUYA ISHIMURA (INSTITUTE FOR MOLECULAR SCIENCE).
     S,P,D,F,G SHELL TO TOTAL QUARTET ANGULAR MOMENTUM SUM 5,
        ERIC PROGRAM BY GRAHAM FLETCHER (ELORET AND NASA ADVANCED
        SUPERCOMPUTING DIVISION, AMES RESEARCH CENTER).
     S,P,D,F,G,L SHELL GENERAL RYS QUADRATURE PROGRAMMED BY
        MICHEL DUPUIS (PACIFIC NORTHWEST NATIONAL LABORATORY).

          --------------------
          2 ELECTRON INTEGRALS
          --------------------

 THE -PK- OPTION IS OFF, THE INTEGRALS ARE NOT IN SUPERMATRIX FORM.
 STORING   15000 INTEGRALS/RECORD ON DISK, USING 12 BYTES/INTEGRAL.
 TWO ELECTRON INTEGRAL EVALUATION REQUIRES   89461 WORDS OF MEMORY.
 SCHWARZ INEQUALITY OVERHEAD:       351 INTEGRALS, T=        0.00
 II,JST,KST,LST =  1  1  1  1 NREC =         1 INTLOC =    1
 II,JST,KST,LST =  2  1  1  1 NREC =         1 INTLOC =    1
 II,JST,KST,LST =  3  1  1  1 NREC =         1 INTLOC =    1
 II,JST,KST,LST =  4  1  1  1 NREC =         1 INTLOC =    1
 II,JST,KST,LST =  5  1  1  1 NREC =         1 INTLOC =    1
 II,JST,KST,LST =  6  1  1  1 NREC =         1 INTLOC =    1
 II,JST,KST,LST =  7  1  1  1 NREC =         1 INTLOC = 2773
 II,JST,KST,LST =  8  1  1  1 NREC =         1 INTLOC = 2773
 II,JST,KST,LST =  9  1  1  1 NREC =         1 INTLOC = 2773
 II,JST,KST,LST = 10  1  1  1 NREC =         1 INTLOC = 2773
 II,JST,KST,LST = 11  1  1  1 NREC =         1 INTLOC = 2773
 II,JST,KST,LST = 12  1  1  1 NREC =         1 INTLOC = 2774
 II,JST,KST,LST = 13  1  1  1 NREC =         1 INTLOC = 3306
 II,JST,KST,LST = 14  1  1  1 NREC =         1 INTLOC = 3306
 SCHWARZ INEQUALITY TEST SKIPPED           6 INTEGRAL BLOCKS.
 TOTAL NUMBER OF NONZERO TWO-ELECTRON INTEGRALS =               60125
         28 INTEGRAL RECORDS WERE STORED ON DISK FILE  8.
  ...... END OF TWO-ELECTRON INTEGRALS .....
 CPU     0: STEP CPU TIME=     0.010 TOTAL CPU TIME=        0.054 (     0.001 MIN)
 TOTAL WALL CLOCK TIME=        0.203 SECONDS, CPU UTILIZATION IS    26.418%

          ---------------------------
            RO-BHHLYP SCF CALCULATION
          ---------------------------

     NUCLEAR ENERGY =        34.5532521966
     MAXIT =200     NPUNCH=  2     MULT=  3
     EXTRAP=T  DAMP=F  SHIFT=F  RSTRCT=F  DIIS=T  SOSCF=F
         DENSITY MATRIX CONVERGENCE THRESHOLD=  1.00E-06
     COARSE -> FINE DFT GRID SWITCH THRESHOLD=  3.00E-04 (SWITCH IN $DFT)
                   HF -> DFT SWITCH THRESHOLD=  0.00E+00 (SWOFF IN $DFT)
     ROHF CANONICALIZATION PARAMETERS
             C-C     O-O     V-V
     ALPHA  0.5000  0.5000  0.5000
     BETA   0.5000  0.5000  0.5000
     MEMORY REQUIRED FOR UHF/ROHF ITERS=    181733 WORDS.

     EXCHANGE FUNCTIONAL   =B88&HFX   
     CORRELATION FUNCTIONAL=LYP88     
     DFT THRESHOLD         =.172E-07
 FOR AN EULER-MACLAURIN QUADRATURE USING  50 RADIAL POINTS:
 SMALLEST GAUSSIAN PRIMITIVE EXPONENT=        0.1612777588 OF TYPE -S-
 ON ATOM NUMBER   3 HAS RADIAL NORMALIZATION=  1.000000
  LARGEST GAUSSIAN PRIMITIVE EXPONENT=     3047.5248800000 OF TYPE -S-
 ON ATOM NUMBER   1 HAS RADIAL NORMALIZATION=  1.000000

 ITER EX      TOTAL ENERGY        E CHANGE  DENSITY CHANGE    DIIS ERROR
          * * *   INITIATING DIIS PROCEDURE   * * *
   1  0      -78.3199488878   -78.3199488878   0.000000659   0.000000145
   2  1      -78.3199488878    -0.0000000000   0.000000038   0.000000011
   3  2      -78.3199488878     0.0000000000   0.000000012   0.000000009

          -----------------
          DENSITY CONVERGED
          -----------------
     TIME TO FORM FOCK OPERATORS=       0.0 SECONDS (       0.0 SEC/ITER)
     TIME TO SOLVE SCF EQUATIONS=       0.0 SECONDS (       0.0 SEC/ITER)

 THE CONVERGED ORBITALS WILL UNDERGO GUEST/SAUNDERS
 CANONICALIZATION FOR SPIN-FLIP TDDFT.

 FINAL RO-BHHLYP ENERGY IS      -78.3199488878 AFTER   3 ITERATIONS
 DFT EXCHANGE + CORRELATION ENERGY =        -6.4383481365
 TOTAL ELECTRON NUMBER             =        15.9996544782

          --------------------
          SPIN SZ   =    1.000
          S-SQUARED =    2.000
          --------------------

          ------------
          EIGENVECTORS
          ------------

                      1          2          3          4          5
                  -10.5728   -10.5605    -0.8966    -0.6736    -0.5491
                     A          A          A          A          A   
    1  C  1  S    0.993471  -0.062627  -0.159005  -0.125205   0.004262
    2  C  1  S    0.031510  -0.003877   0.312240   0.246954  -0.009291
    3  C  1  X   -0.000061  -0.000188   0.014603  -0.030848  -0.222668
    4  C  1  Y    0.000451  -0.000625   0.071592  -0.073195   0.244488
    5  C  1  Z   -0.000923   0.001066  -0.122113   0.097788   0.048130
    6  C  1  S   -0.024095   0.010942   0.205594   0.259821  -0.017719
    7  C  1  X    0.000053   0.000672  -0.003020  -0.009946  -0.092809
    8  C  1  Y   -0.001728   0.002410   0.003206  -0.025226   0.094048
    9  C  1  Z    0.002616  -0.003886  -0.007576   0.022811   0.016952
   10  C  2  S    0.061963   0.993452  -0.166302   0.117208   0.005640
   11  C  2  S    0.000079   0.032152   0.324573  -0.232031  -0.012407
   12  C  2  X    0.000202  -0.000354  -0.031736  -0.024342  -0.211616
   13  C  2  Y    0.000589  -0.000354  -0.059632  -0.111769   0.225359
   14  C  2  Z   -0.000981   0.000669   0.108548   0.180858   0.141711
   15  C  2  S    0.008590  -0.025724   0.206930  -0.243343  -0.020502
   16  C  2  X   -0.000899   0.000938  -0.002262  -0.004785  -0.075696
   17  C  2  Y   -0.002222   0.001015  -0.000300  -0.021530   0.087348
   18  C  2  Z    0.003873  -0.002292   0.001837   0.046710   0.057009
   19  H  3  S   -0.000618  -0.000156   0.078296   0.133013   0.141981
   20  H  3  S    0.004153  -0.000041   0.016388   0.061875   0.093269
   21  H  4  S   -0.000708  -0.000182   0.072777   0.143568  -0.160533
   22  H  4  S    0.003685   0.000130   0.013662   0.063506  -0.101920
   23  H  5  S   -0.000263  -0.000766   0.090462  -0.164967   0.138966
   24  H  5  S    0.000462   0.004722   0.017370  -0.075011   0.090324
   25  H  6  S   -0.000300  -0.000760   0.082052  -0.162518  -0.165513
   26  H  6  S    0.000641   0.004123   0.013868  -0.071240  -0.105591

                      6          7          8          9         10
                   -0.5136    -0.4077    -0.2513     0.0075     0.1769
                     A          A          A          A          A   
    1  C  1  S   -0.004953   0.000166  -0.006542   0.010379  -0.090355
    2  C  1  S    0.001887  -0.000851   0.014717  -0.022678   0.120992
    3  C  1  X   -0.113812   0.246711   0.262501  -0.302228  -0.133089
    4  C  1  Y   -0.202671  -0.181991   0.246251  -0.254491  -0.019255
    5  C  1  Z    0.357718  -0.054111   0.231059  -0.234492   0.149918
    6  C  1  S    0.065351  -0.011587   0.026758  -0.048538   1.677304
    7  C  1  X   -0.039212   0.131179   0.149858  -0.401884  -0.408707
    8  C  1  Y   -0.054553  -0.101994   0.155079  -0.325704  -0.140383
    9  C  1  Z    0.099737  -0.029201   0.139921  -0.313029   0.513723
   10  C  2  S    0.019230  -0.002026  -0.000884  -0.005933  -0.051880
   11  C  2  S   -0.043857   0.006854   0.002252   0.013423   0.076160
   12  C  2  X    0.027968  -0.160080   0.356708   0.365677  -0.033423
   13  C  2  Y    0.230417   0.244083   0.178694   0.202710   0.129839
   14  C  2  Z   -0.328066   0.132644   0.154371   0.187682  -0.068072
   15  C  2  S   -0.027170   0.009523   0.003280   0.016073   1.102889
   16  C  2  X    0.005692  -0.084627   0.222655   0.485630  -0.020076
   17  C  2  Y    0.072011   0.124806   0.101217   0.272878   0.543029
   18  C  2  Z   -0.095089   0.067824   0.093744   0.239586  -0.441350
   19  H  3  S    0.148119  -0.206498   0.026308   0.029364  -0.057724
   20  H  3  S    0.115848  -0.181455   0.025902   0.069826  -1.475856
   21  H  4  S    0.142392   0.190456  -0.023726  -0.005323  -0.003968
   22  H  4  S    0.112029   0.165670  -0.022481  -0.014068  -0.735612
   23  H  5  S    0.135794   0.204362  -0.024777   0.013090  -0.026786
   24  H  5  S    0.103477   0.174000  -0.020439   0.035896  -1.206004
   25  H  6  S    0.103818  -0.201230   0.027242  -0.024123   0.024700
   26  H  6  S    0.081735  -0.174883   0.027548  -0.057324  -0.486148

                     11         12         13         14         15
                    0.1942     0.2170     0.3034     0.4066     0.5316
                     A          A          A          A          A   
    1  C  1  S    0.035881   0.092377  -0.004812  -0.070220  -0.019150
    2  C  1  S   -0.044680  -0.107005  -0.008025   0.016200  -0.314561
    3  C  1  X   -0.187555   0.021503  -0.207945   0.035227  -0.158559
    4  C  1  Y    0.225290   0.052196   0.174822   0.085771  -0.224380
    5  C  1  Z   -0.011105  -0.044701   0.067012  -0.117865   0.507576
    6  C  1  S   -0.701748  -1.547689   0.266441   3.870950  -0.377722
    7  C  1  X   -0.541730   0.015369  -1.177037   0.601030   0.205271
    8  C  1  Y    0.635428   0.104065   1.306516   1.749031   0.424609
    9  C  1  Z   -0.093475   0.046439   0.315633  -2.807428  -0.781896
   10  C  2  S    0.017009  -0.118765   0.005973   0.066317  -0.021292
   11  C  2  S   -0.017977   0.136142   0.006415  -0.012455  -0.339306
   12  C  2  X   -0.141402   0.021127   0.171394   0.026913   0.050543
   13  C  2  Y    0.149248   0.046143  -0.239755   0.083661   0.324694
   14  C  2  Z    0.143455  -0.124377  -0.094868  -0.152213  -0.420526
   15  C  2  S   -0.435689   2.326401  -0.381347  -3.599017  -0.069871
   16  C  2  X   -0.321086   0.054083   1.192130   0.577938  -0.167017
   17  C  2  Y    0.332208   0.092807  -1.291666   1.694655  -0.747882
   18  C  2  Z    0.462115  -0.370947  -0.677484  -2.946436   1.082166
   19  H  3  S   -0.051846   0.031349   0.029689   0.108127   0.092869
   20  H  3  S   -0.624131   0.747401  -1.533735   0.480778  -0.027526
   21  H  4  S    0.080184   0.026915  -0.045334   0.068526  -0.006980
   22  H  4  S    1.528101   0.882544   1.451822   0.738672   0.145107
   23  H  5  S   -0.067477  -0.015672  -0.029284  -0.062552   0.091983
   24  H  5  S   -0.629611  -1.239453   1.859406  -0.724335   0.192819
   25  H  6  S    0.072668  -0.015042   0.027067  -0.026789  -0.012362
   26  H  6  S    1.263362  -1.424835  -1.630739  -0.908535   0.287812

                     16         17         18         19         20
                    0.6171     0.6350     0.7175     0.7757     0.8562
                     A          A          A          A          A   
    1  C  1  S   -0.002315  -0.000418   0.001508  -0.027250   0.091266
    2  C  1  S    0.028213  -0.036111  -0.003996  -0.923909   0.134844
    3  C  1  X    0.482604  -0.231363  -0.543693   0.025178  -0.212362
    4  C  1  Y    0.414134   0.351992  -0.386127  -0.018389  -0.228738
    5  C  1  Z    0.353934   0.023784  -0.375110  -0.035848   0.584318
    6  C  1  S    0.003526   0.334285   0.030993   1.986165  -1.245554
    7  C  1  X   -0.468382   0.467565   0.887780  -0.126191   0.337168
    8  C  1  Y   -0.395521  -0.570631   0.609184  -0.094743  -0.038420
    9  C  1  Z   -0.275173   0.018454   0.515221   0.193964  -0.288409
   10  C  2  S   -0.001878   0.006919   0.000120  -0.027067  -0.091432
   11  C  2  S    0.017258  -0.015642   0.009868  -0.958653  -0.135513
   12  C  2  X    0.561060  -0.358974   0.588352   0.027759  -0.083846
   13  C  2  Y    0.315539   0.276942   0.379283  -0.058511  -0.395955
   14  C  2  Z    0.312121   0.185316   0.334172   0.045026   0.552180
   15  C  2  S    0.040953   0.079035  -0.022006   1.716124   1.581000
   16  C  2  X   -0.487158   0.745932  -0.869053   0.021481  -0.083653
   17  C  2  Y   -0.313778  -0.628863  -0.579346   0.652499   0.386516
   18  C  2  Z   -0.296050  -0.651676  -0.595799  -0.808904  -0.412832
   19  H  3  S   -0.000349   0.285868   0.046970  -0.466206   0.404654
   20  H  3  S   -0.079806   0.133686   0.018573  -0.254969   0.283136
   21  H  4  S   -0.013437  -0.398254  -0.022217  -0.403981   0.507032
   22  H  4  S    0.005461  -0.201617   0.026536  -0.224288  -0.118756
   23  H  5  S    0.002830   0.363381   0.030501  -0.462913  -0.358265
   24  H  5  S    0.046656   0.216314  -0.029578  -0.678435  -0.421466
   25  H  6  S   -0.010440  -0.415869  -0.035624  -0.392894  -0.466009
   26  H  6  S   -0.067386  -0.376348  -0.032137  -0.507433  -0.161241

                     21         22         23         24         25
                    0.9717     1.0238     1.0684     1.1442     1.2546
                     A          A          A          A          A   
    1  C  1  S    0.007782   0.006304   0.038249   0.003495  -0.005239
    2  C  1  S   -0.029288  -0.304637  -1.256432   0.103758  -1.454095
    3  C  1  X    0.793500   0.114868   0.104376  -0.049500  -0.096264
    4  C  1  Y   -0.780695   0.031330   0.397672  -0.034739  -0.301383
    5  C  1  Z   -0.213732  -0.144929  -0.515318   0.104904   0.486672
    6  C  1  S    0.165623   0.431986   2.247418  -0.896150   4.806908
    7  C  1  X   -2.131324   0.432865  -0.178180   0.124155   0.677222
    8  C  1  Y    2.302915  -0.751512  -0.473860  -0.183194   0.542541
    9  C  1  Z    0.517737   0.037692   0.657915   0.071913  -1.743404
   10  C  2  S   -0.006618  -0.000645   0.006148   0.042740   0.010289
   11  C  2  S   -0.099304   0.023938  -0.215925  -1.466947   1.280319
   12  C  2  X   -0.267175   0.606152  -0.092294  -0.041036  -0.126075
   13  C  2  Y    0.271493  -0.706653   0.242417  -0.360763  -0.295530
   14  C  2  Z    0.195438  -0.406155  -0.086308   0.516596   0.557884
   15  C  2  S   -0.024078   0.015621   0.045502   3.103304  -4.620832
   16  C  2  X    1.371450  -1.444484   0.167724  -0.102444   0.017807
   17  C  2  Y   -1.392567   1.573595  -0.387685   0.385075   1.326867
   18  C  2  Z   -0.869632   0.985482   0.123683  -0.338212  -1.424805
   19  H  3  S    0.462188   0.535445   0.565775   0.057031  -0.002808
   20  H  3  S   -1.887449  -0.444695  -1.153633   0.219049  -0.050243
   21  H  4  S   -0.277837  -0.277463   0.767325   0.024510  -0.452654
   22  H  4  S    1.876468  -0.212921  -1.472158   0.063261  -0.184059
   23  H  5  S    0.087810   0.562227  -0.109026   0.722505   0.100778
   24  H  5  S    0.775532  -1.683387   0.466834  -1.449346  -0.045838
   25  H  6  S   -0.147452  -0.546228   0.201779   0.716242   0.540592
   26  H  6  S   -0.922023   1.870816  -0.242333  -1.224723   0.075301

                     26
                    1.3080
                     A   
    1  C  1  S   -0.016378
    2  C  1  S   -0.544709
    3  C  1  X    0.021117
    4  C  1  Y   -0.098611
    5  C  1  Z    0.079280
    6  C  1  S    2.472917
    7  C  1  X   -1.519608
    8  C  1  Y    2.412153
    9  C  1  Z   -0.443525
   10  C  2  S    0.019699
   11  C  2  S    0.402078
   12  C  2  X    0.009590
   13  C  2  Y   -0.101355
   14  C  2  Z    0.113238
   15  C  2  S   -2.418239
   16  C  2  X    1.715824
   17  C  2  Y   -1.100991
   18  C  2  Z   -1.757040
   19  H  3  S   -0.843838
   20  H  3  S   -0.569317
   21  H  4  S    0.672567
   22  H  4  S    0.686937
   23  H  5  S    0.841462
   24  H  5  S    0.552101
   25  H  6  S   -0.542321
   26  H  6  S   -0.719921
 ...... END OF ROHF CALCULATION ......
 CPU     0: STEP CPU TIME=     0.022 TOTAL CPU TIME=        0.075 (     0.001 MIN)
 TOTAL WALL CLOCK TIME=        0.315 SECONDS, CPU UTILIZATION IS    23.852%

     ---------------------------------------------------------------------
     PROPERTIES FOR THE BHHLYP   DFT FUNCTIONAL (ROHF TYPE) DENSITY MATRIX
     ---------------------------------------------------------------------

          -----------------
          ENERGY COMPONENTS
          -----------------

         WAVEFUNCTION NORMALIZATION =       1.0000000000

                ONE ELECTRON ENERGY =    -172.2066137800
                TWO ELECTRON ENERGY =      59.3334126956
           NUCLEAR REPULSION ENERGY =      34.5532521966
                                      ------------------
                       TOTAL ENERGY =     -78.3199488878

 ELECTRON-ELECTRON POTENTIAL ENERGY =      59.3334126956
  NUCLEUS-ELECTRON POTENTIAL ENERGY =    -251.0600249990
   NUCLEUS-NUCLEUS POTENTIAL ENERGY =      34.5532521966
                                      ------------------
             TOTAL POTENTIAL ENERGY =    -157.1733601069
               TOTAL KINETIC ENERGY =      78.8534112191
                 VIRIAL RATIO (V/T) =       1.9932347590

          ---------------------------------------
          MULLIKEN AND LOWDIN POPULATION ANALYSES
          ---------------------------------------

     ATOMIC MULLIKEN POPULATION IN EACH MOLECULAR ORBITAL

                      1          2          3          4          5

                  2.000000   2.000000   2.000000   2.000000   2.000000

    1             1.987963   0.010349   0.872373   0.576125   0.637600
    2             0.010498   1.987922   0.899975   0.675635   0.643317
    3             0.000791  -0.000000   0.055580   0.147024   0.160578
    4             0.000696   0.000004   0.045770   0.169957   0.203635
    5             0.000023   0.000931   0.070371   0.217936   0.144770
    6             0.000029   0.000795   0.055931   0.213323   0.210101

                      6          7          8          9

                  2.000000   2.000000   1.000000   1.000000

    1             0.773271   0.456682   0.494642   0.499002
    2             0.628357   0.462911   0.497922   0.496292
    3             0.189769   0.296089   0.002239   0.002419
    4             0.171186   0.249176   0.001457   0.000150
    5             0.148388   0.265941   0.001475   0.000642
    6             0.089029   0.269201   0.002265   0.001495

     ATOMIC SPIN POPULATION (ALPHA MINUS BETA)
       ATOM         MULL.POP.                    LOW.POP.
    1 C             0.993644                     0.992750
    2 C             0.994214                     0.992817
    3 H             0.004658                     0.005734
    4 H             0.001607                     0.001787
    5 H             0.002117                     0.002362
    6 H             0.003760                     0.004549

               ----- POPULATIONS IN EACH AO -----
                             MULLIKEN      LOWDIN
              1  C  1  S      1.99703     1.99013
              2  C  1  S      0.70088     0.56533
              3  C  1  X      0.67278     0.62651
              4  C  1  Y      0.70146     0.64841
              5  C  1  Z      0.72916     0.68314
              6  C  1  S      0.57034     0.43111
              7  C  1  X      0.37916     0.45472
              8  C  1  Y      0.32152     0.43086
              9  C  1  Z      0.23568     0.39983
             10  C  2  S      1.99709     1.99077
             11  C  2  S      0.71074     0.56793
             12  C  2  X      0.63746     0.60885
             13  C  2  Y      0.74447     0.68292
             14  C  2  Z      0.77053     0.71132
             15  C  2  S      0.52387     0.41146
             16  C  2  X      0.38632     0.43422
             17  C  2  Y      0.30307     0.43539
             18  C  2  Z      0.22926     0.40339
             19  H  3  S      0.53304     0.50879
             20  H  3  S      0.32145     0.37367
             21  H  4  S      0.53210     0.50536
             22  H  4  S      0.30993     0.37158
             23  H  5  S      0.56071     0.53430
             24  H  5  S      0.28977     0.34926
             25  H  6  S      0.55008     0.52374
             26  H  6  S      0.29209     0.35698

          ----- MULLIKEN ATOMIC OVERLAP POPULATIONS -----
          (OFF-DIAGONAL ELEMENTS NEED TO BE MULTIPLIED BY 2)

             1           2           3           4           5

    1    5.5202991
    2    0.0805466   5.5284105
    3    0.3965922  -0.0566538   0.5499047
    4    0.3936076  -0.0426325  -0.0307811   0.5225778
    5   -0.0457076   0.4015266  -0.0093547   0.0048502   0.5441849
    6   -0.0373305   0.3916324   0.0047799  -0.0055924  -0.0450219

             6

    6    0.5337011

          TOTAL MULLIKEN AND LOWDIN ATOMIC POPULATIONS
       ATOM         MULL.POP.    CHARGE          LOW.POP.     CHARGE
    1 C             6.308007   -0.308007         6.230049   -0.230049
    2 C             6.302830   -0.302830         6.246271   -0.246271
    3 H             0.854487    0.145513         0.882465    0.117535
    4 H             0.842030    0.157970         0.876935    0.123065
    5 H             0.850477    0.149523         0.883559    0.116441
    6 H             0.842169    0.157831         0.880721    0.119279

          -------------------------------
          BOND ORDER AND VALENCE ANALYSIS     BOND ORDER THRESHOLD=0.050
          -------------------------------

                   BOND                       BOND                       BOND
  ATOM PAIR DIST  ORDER      ATOM PAIR DIST  ORDER      ATOM PAIR DIST  ORDER
    1   2  1.273  0.872        1   3  1.090  0.960        1   4  1.079  0.956
    2   5  1.022  0.959        2   6  1.037  0.953

                       TOTAL       BONDED        FREE
      ATOM            VALENCE     VALENCE     VALENCE
    1 C                 3.795       2.757       1.038
    2 C                 3.786       2.748       1.038
    3 H                 0.945       0.945       0.000
    4 H                 0.944       0.944       0.000
    5 H                 0.937       0.937       0.000
    6 H                 0.936       0.936       0.000

          -----------------------------------------
          ATOMIC SPIN DENSITY AT THE NUCLEUS (A.U.)
          -----------------------------------------
                            SPIN DENS    ALPHA DENS     BETA DENS
    1  C            6.0     0.0078931      59.15568      59.14779
    2  C            6.0     0.0018952      59.18430      59.18240
    3  H            1.0     0.0025207       0.21301       0.21049
    4  H            1.0     0.0010267       0.21190       0.21087
    5  H            1.0     0.0012989       0.23013       0.22884
    6  H            1.0     0.0021069       0.22415       0.22204

          ---------------------
          ELECTROSTATIC MOMENTS
          ---------------------

 POINT   1           X           Y           Z (BOHR)    CHARGE
                 3.230286    3.467417   -4.527765       -0.00 (A.U.)
         DX          DY          DZ         /D/  (DEBYE)
    -0.127213   -0.012646   -0.145994    0.194055
 ...... END OF PROPERTY EVALUATION ......
 CPU     0: STEP CPU TIME=     0.004 TOTAL CPU TIME=        0.080 (     0.001 MIN)
 TOTAL WALL CLOCK TIME=        0.323 SECONDS, CPU UTILIZATION IS    24.667%

 -----------------------------------------------------------------------
                    MRSF  CALCULATION FOR SCFTYP=ROHF
             CODED BY SEUNGHOON LEE AND KONSTANTIN KOMAROV
 -----------------------------------------------------------------------
  
 -TDDFT RUNTIME PARAMETERS-
    TRIPLET  = F
    NONEQ    = T
    NSTATE   =                     3
    IROOT    =                     2
    NTRIAL   =                     1
    MAXVEC   =                    50
    ILENG    =                   200
    MAXGRD   =                 20239
    USING THE SG-1 PRUNED GRIDS
 GAS PHASE COMPUTATION
  
 FOR AN EULER-MACLAURIN QUADRATURE USING  50 RADIAL POINTS:
 SMALLEST GAUSSIAN PRIMITIVE EXPONENT=        0.1612777588 OF TYPE -S-
 ON ATOM NUMBER   3 HAS RADIAL NORMALIZATION=  1.000000
  LARGEST GAUSSIAN PRIMITIVE EXPONENT=     3047.5248800000 OF TYPE -S-
 ON ATOM NUMBER   1 HAS RADIAL NORMALIZATION=  1.000000
  

        --------------------------------------------------
        MRSF-DFT INPUT PARAMETERS (EXTRACTED FROM $TDDFT)
        --------------------------------------------------

     NSTATE=       3  IROOT=       2 MAXVEC=      50
     NTRIAL=       1 CNVTOL=  1.00E-07

     FITTING PARAMETERS OF MRSF RESPONSE CALCULATION
        MRSFscal
        0.500
     FITTING PARAMETERS OF MRSF SPIN-PAIRING COUPLINGS
        CO-CO   OV-OV   CO-OV
        0.500   0.500   0.500
     REFERENCE CALCULATION WAS DONE WITH
        HFscal
        0.500

     ********* NOTE: THE CURRENT STATUS OF MRSF-DFT *********

     (1) ROHF REFERENCE IS AVAILABLE.
     (2) COLLINEAR APPROXIMATION FOR XC FUNCTIONALS.

     *******************************************************

 MEMORY REQUIRED FOR MRSF-TDDFT ITERATIONS IS    169804 WORDS.

   ----------------------------------------------
   DAVIDSON ALGORITHM FOR SINGLET RESPONSE STATES
   ----------------------------------------------


 STATE      ITERATION      ENERGY         RESIDUE NORM
   1            1      -78.4812969149     0.08779520
   2            1      -78.1785150624     0.07976621
   3            1      -78.1550823947     0.07307475

 STATE      ITERATION      ENERGY         RESIDUE NORM
   1            2      -78.4922152365     0.01323894
   2            2      -78.1890375518     0.01069015
   3            2      -78.1612186199     0.03681907

 STATE      ITERATION      ENERGY         RESIDUE NORM
   1            3      -78.4923640077     0.00133602
   2            3      -78.1892084648     0.00107162
   3            3      -78.1640841939     0.01116259

 STATE      ITERATION      ENERGY         RESIDUE NORM
   1            4      -78.4923658903     0.00015536
   2            4      -78.1892105453     0.00023476
   3            4      -78.1642994575     0.00193573

 STATE      ITERATION      ENERGY         RESIDUE NORM
   1            5      -78.4923659137     0.00001719
   2            5      -78.1892106504     0.00006380
   3            5      -78.1643076521     0.00058637

 STATE      ITERATION      ENERGY         RESIDUE NORM
   1            6      -78.4923659139     0.00000140
   2            6      -78.1892106590     0.00001808
   3            6      -78.1643083581     0.00016933

 STATE      ITERATION      ENERGY         RESIDUE NORM
   1            7      -78.4923659139     0.00000007
   2            7      -78.1892106594     0.00000283
   3            7      -78.1643084143     0.00003448

 STATE      ITERATION      ENERGY         RESIDUE NORM
   1            8      -78.4923659139     0.00000001
   2            8      -78.1892106595     0.00000043
   3            8      -78.1643084162     0.00000656

 STATE      ITERATION      ENERGY         RESIDUE NORM
   1            9      -78.4923659139     0.00000000
   2            9      -78.1892106595     0.00000007
   3            9      -78.1643084163     0.00000119

 STATE      ITERATION      ENERGY         RESIDUE NORM
   1           10      -78.4923659139     0.00000000
   2           10      -78.1892106595     0.00000001
   3           10      -78.1643084163     0.00000020

 STATE      ITERATION      ENERGY         RESIDUE NORM
   1           11      -78.4923659139     0.00000000
   2           11      -78.1892106595     0.00000000
   3           11      -78.1643084163     0.00000003

   -------------------------------------------------
    MIXED-REFERENCE SPIN-FLIP CALCULATION CONVERGED
   -------------------------------------------------

 NUMBER OF USED VECTORS / MAX =  31 / 150
 NUMBER OF ITERATIONS   / MAX =  11 / 200
 NUMBER OF SINGLE EXCITATIONS =   170
 NUMBER OF ATOMIC ORBITALS    =  26

     -----------------------------------
     SPIN-ADAPTED SPIN-FLIP EXCITATIONS
     -----------------------------------

 STATE #   1  ENERGY =   -4.691706 EV
 SYMMETRY OF STATE   =    A   
 S-SQUARED           =    0.0000
        DRF    COEF         OCC       VIR 
        ---    ----       ------    ------
          9  0.991266         9  ->     8
         17  0.116283         8  ->     9

 STATE #   2  ENERGY =    3.557568 EV
 SYMMETRY OF STATE   =    A   
 S-SQUARED           =    0.0000
        DRF    COEF         OCC       VIR 
        ---    ----       ------    ------
          7  0.825187         7  ->     8
          8 -0.546624         8  ->     8
         14 -0.116455         5  ->     9
         78  0.057408         7  ->    16

 STATE #   3  ENERGY =    4.235193 EV
 SYMMETRY OF STATE   =    A   
 S-SQUARED           =    0.0000
        DRF    COEF         OCC       VIR 
        ---    ----       ------    ------
          7 -0.533012         7  ->     8
          8 -0.815024         8  ->     8
         26  0.109256         9  ->    10
         35 -0.164677         9  ->    11
         98  0.070103         9  ->    18

          ----------------------------
          SUMMARY OF MRSF-DFT RESULTS
          ----------------------------

   STATE             ENERGY     EXCITATION      <S^2>    TRANSITION DIPOLE, A.U.  OSCILLATOR
                    HARTREE         EV                      X        Y        Z    STRENGTH

 1 NEGATIVE ROOT(S) FOUND.
   1  A          -78.4923659139   -4.692        0.0000   0.0000   0.0000   0.0000   0.0000
   0  A          -78.3199488878    0.000               (REFERENCE STATE)
   2  A          -78.1892106595    3.558        0.0000   0.0696   0.3158  -0.5047   0.0726
   3  A          -78.1643084163    4.235        0.0000   0.2591   0.7063  -1.2408   0.4605
  
 TRANSITION        EXCITATION            TRANSITION DIPOLE, A.U.     OSCILLATOR
                       EV              X       Y       Z       DIP    STRENGTH

  1  ->  2           8.249          0.0696  0.3158 -0.5047   0.5994    0.0726
  1  ->  3           8.927          0.2591  0.7063 -1.2408   1.4511    0.4605
  2  ->  3           0.678         -0.0461  0.0141 -0.0174   0.0513    0.0000
 
 SELECTING EXCITED STATE IROOT=   2 AT E=      -78.1892106595
 AS THE STATE OF INTEREST.


 ..... DONE WITH MRSF-TDDFT EXCITATION ENERGIES .....
 CPU     0: STEP CPU TIME=     0.022 TOTAL CPU TIME=        0.108 (     0.002 MIN)
 TOTAL WALL CLOCK TIME=        0.770 SECONDS, CPU UTILIZATION IS    14.047%
 STEP WALL TIME =     0.143

 -----------------------------------------------------------------------
                 MRSF-TDDFT ENERGY GRADIENT CALCULATION
 -----------------------------------------------------------------------

    -------------------------
       START Z-VECTOR LOOP
    -------------------------
 INITIAL ERROR =    5.285E-02 / 1.000E-10
 ITER# 1 ERROR =    3.455E-03 / 1.000E-10
 ITER# 2 ERROR =    3.085E-04 / 1.000E-10
 ITER# 3 ERROR =    3.294E-05 / 1.000E-10
 ITER# 4 ERROR =    2.891E-06 / 1.000E-10
 ITER# 5 ERROR =    2.318E-07 / 1.000E-10
 ITER# 6 ERROR =    1.677E-08 / 1.000E-10
 ITER# 7 ERROR =    1.282E-09 / 1.000E-10
 ITER# 8 ERROR =    3.944E-11 / 1.000E-10
    -------------------------
        Z-VECTOR CONVERGED          
    -------------------------
 ..... DONE WITH MRSF-DFT EXCITED STATE RESPONSE AND DENSITY MATRIX .....
 CPU     0: STEP CPU TIME=     0.148 TOTAL CPU TIME=        0.256 (     0.004 MIN)
 TOTAL WALL CLOCK TIME=        1.036 SECONDS, CPU UTILIZATION IS    24.693%

     ------------------------------------------
     PROPERTIES FOR THE BHHLYP   DFT FUNCTIONAL
      USING THE RELAXED DENSITY OF EXCITED STATE    2
     ------------------------------------------

          -----------------
          ENERGY COMPONENTS
          -----------------

         WAVEFUNCTION NORMALIZATION =       1.0000000000

                ONE ELECTRON ENERGY =    -172.2197958071
                TWO ELECTRON ENERGY =      59.4773329510
           NUCLEAR REPULSION ENERGY =      34.5532521966
                                      ------------------
                       TOTAL ENERGY =     -78.1892106595

 ELECTRON-ELECTRON POTENTIAL ENERGY =      59.4773329510
  NUCLEUS-ELECTRON POTENTIAL ENERGY =    -250.7668261513
   NUCLEUS-NUCLEUS POTENTIAL ENERGY =      34.5532521966
                                      ------------------
             TOTAL POTENTIAL ENERGY =    -156.7362410036
               TOTAL KINETIC ENERGY =      78.5470303442
                 VIRIAL RATIO (V/T) =       1.9954445167

          ---------------------------------------
          MULLIKEN AND LOWDIN POPULATION ANALYSES
          ---------------------------------------

     ATOMIC MULLIKEN POPULATION IN EACH MOLECULAR ORBITAL

                      1          2          3          4          5

                  2.000000   2.000000   2.000000   2.000000   2.000000

    1             1.987963   0.010349   0.872373   0.576125   0.637600
    2             0.010498   1.987922   0.899975   0.675635   0.643317
    3             0.000791  -0.000000   0.055580   0.147024   0.160578
    4             0.000696   0.000004   0.045770   0.169957   0.203635
    5             0.000023   0.000931   0.070371   0.217936   0.144770
    6             0.000029   0.000795   0.055931   0.213323   0.210101

                      6          7          8          9

                  2.000000   2.000000   1.000000   1.000000

    1             0.773271   0.456682   0.494642   0.499002
    2             0.628357   0.462911   0.497922   0.496292
    3             0.189769   0.296089   0.002239   0.002419
    4             0.171186   0.249176   0.001457   0.000150
    5             0.148388   0.265941   0.001475   0.000642
    6             0.089029   0.269201   0.002265   0.001495

     ATOMIC SPIN POPULATION (ALPHA MINUS BETA)
       ATOM         MULL.POP.                    LOW.POP.
    1 C             0.225361                     0.220990
    2 C             0.199626                     0.195910
    3 H            -0.116210                    -0.114247
    4 H            -0.094329                    -0.092628
    5 H            -0.104215                    -0.102855
    6 H            -0.110234                    -0.107169

               ----- POPULATIONS IN EACH AO -----
                             MULLIKEN      LOWDIN
              1  C  1  S      1.99696     1.98991
              2  C  1  S      0.69560     0.55731
              3  C  1  X      0.68785     0.64173
              4  C  1  Y      0.66682     0.61874
              5  C  1  Z      0.74636     0.70138
              6  C  1  S      0.52409     0.42491
              7  C  1  X      0.43325     0.52347
              8  C  1  Y      0.36636     0.46904
              9  C  1  Z      0.31886     0.45951
             10  C  2  S      1.99703     1.99057
             11  C  2  S      0.70618     0.56102
             12  C  2  X      0.65419     0.62966
             13  C  2  Y      0.71990     0.66045
             14  C  2  Z      0.77553     0.71713
             15  C  2  S      0.48187     0.40568
             16  C  2  X      0.51351     0.55393
             17  C  2  Y      0.31895     0.45246
             18  C  2  Z      0.28522     0.44006
             19  H  3  S      0.49415     0.45684
             20  H  3  S      0.28903     0.33990
             21  H  4  S      0.49815     0.46141
             22  H  4  S      0.28008     0.34306
             23  H  5  S      0.52197     0.48295
             24  H  5  S      0.26033     0.32071
             25  H  6  S      0.51134     0.47334
             26  H  6  S      0.25642     0.32483

          ----- MULLIKEN ATOMIC OVERLAP POPULATIONS -----
          (OFF-DIAGONAL ELEMENTS NEED TO BE MULTIPLIED BY 2)

             1           2           3           4           5

    1    5.5465388
    2    0.2547538   5.5792033
    3    0.3370076  -0.0388319   0.5033329
    4    0.3517559  -0.0299686  -0.0191871   0.4737727
    5   -0.0277327   0.3461077  -0.0017455   0.0028047   0.4927266
    6   -0.0261727   0.3411166   0.0026057  -0.0009488  -0.0298610

             6

    6    0.4810186

          TOTAL MULLIKEN AND LOWDIN ATOMIC POPULATIONS
       ATOM         MULL.POP.    CHARGE          LOW.POP.     CHARGE
    1 C             6.436151   -0.436151         6.386007   -0.386007
    2 C             6.452381   -0.452381         6.410955   -0.410955
    3 H             0.783182    0.216818         0.796740    0.203260
    4 H             0.778229    0.221771         0.804464    0.195536
    5 H             0.782300    0.217700         0.803661    0.196339
    6 H             0.767758    0.232242         0.798173    0.201827

          -------------------------------
          BOND ORDER AND VALENCE ANALYSIS     BOND ORDER THRESHOLD=0.050
          -------------------------------

                   BOND                       BOND                       BOND
  ATOM PAIR DIST  ORDER      ATOM PAIR DIST  ORDER      ATOM PAIR DIST  ORDER
    1   2  1.273  1.339        1   3  1.090  0.811        1   4  1.079  0.840
    2   5  1.022  0.822        2   6  1.037  0.816

                       TOTAL       BONDED        FREE
      ATOM            VALENCE     VALENCE     VALENCE
    1 C                 3.688       3.038       0.651
    2 C                 3.670       3.024       0.646
    3 H                 0.924       0.861       0.063
    4 H                 0.925       0.882       0.044
    5 H                 0.919       0.867       0.052
    6 H                 0.914       0.857       0.057

          -----------------------------------------
          ATOMIC SPIN DENSITY AT THE NUCLEUS (A.U.)
          -----------------------------------------
                            SPIN DENS    ALPHA DENS     BETA DENS
    1  C            6.0     0.0039342      59.12703      59.12309
    2  C            6.0     0.0010659      59.16009      59.15903
    3  H            1.0    -0.0611771       0.16425       0.22542
    4  H            1.0    -0.0509132       0.17113       0.22205
    5  H            1.0    -0.0609577       0.18135       0.24231
    6  H            1.0    -0.0606494       0.17543       0.23608

          ---------------------
          ELECTROSTATIC MOMENTS
          ---------------------

 POINT   1           X           Y           Z (BOHR)    CHARGE
                 3.230286    3.467417   -4.527765       -0.00 (A.U.)
         DX          DY          DZ         /D/  (DEBYE)
    -0.317290   -0.032689   -0.226910    0.391446
 ...... END OF PROPERTY EVALUATION ......
 CPU     0: STEP CPU TIME=     0.004 TOTAL CPU TIME=        0.260 (     0.004 MIN)
 TOTAL WALL CLOCK TIME=        1.042 SECONDS, CPU UTILIZATION IS    24.951%

 BEGINNING ONE ELECTRON GRADIENT...
 ..... END OF 1-ELECTRON GRADIENT ......
 CPU     0: STEP CPU TIME=     0.002 TOTAL CPU TIME=        0.262 (     0.004 MIN)
 TOTAL WALL CLOCK TIME=        1.048 SECONDS, CPU UTILIZATION IS    24.956%

          ----------------------
          GRADIENT OF THE ENERGY
          ----------------------
 MEMORY FOR GRID POINT CONTRIBUTIONS TO THE SF-DFT GRADIENT=    526075 WORDS.
 CPU     0: STEP CPU TIME=     0.171 TOTAL CPU TIME=        0.433 (     0.007 MIN)
 TOTAL WALL CLOCK TIME=        1.797 SECONDS, CPU UTILIZATION IS    24.085%
 THE COARSE/FINE SCHWARZ SCREENINGS SKIPPED            6/          57 BLOCKS.
 THE NUMBER OF GRADIENT INTEGRAL BLOCKS COMPUTED WAS      5436
 ...... END OF 2-ELECTRON GRADIENT ......
 CPU     0: STEP CPU TIME=     0.005 TOTAL CPU TIME=        0.437 (     0.007 MIN)
 TOTAL WALL CLOCK TIME=        1.817 SECONDS, CPU UTILIZATION IS    24.063%

                         ----------------------
                         GRADIENT OF THE ENERGY
                         ----------------------

 UNITS ARE HARTREE/BOHR    E'X               E'Y               E'Z 
    1 C                0.018848068       0.068201458      -0.110997125
    2 C               -0.027572168      -0.040892773       0.077731080
    3 H                0.014678836       0.016105413      -0.010118124
    4 H               -0.003996958       0.003765293      -0.019120561
    5 H                0.013649280      -0.064424703       0.016092106
    6 H               -0.015607058       0.017245312       0.046412625

                   MAXIMUM GRADIENT =    0.110997125
                       RMS GRADIENT =    0.043503197
  $VIB   
          IVIB=   0 IATOM=   0 ICOORD=   0 E=      -78.1892106595
  1.884806771E-02 6.820145750E-02-1.109971253E-01-2.757216759E-02-4.089277304E-02
  7.773107956E-02 1.467883637E-02 1.610541319E-02-1.011812421E-02-3.996958388E-03
  3.765293167E-03-1.912056123E-02 1.364928024E-02-6.442470309E-02 1.609210640E-02
 -1.560705834E-02 1.724531227E-02 4.641262482E-02
 -3.172898240E-01-3.268919912E-02-2.269102682E-01

..... END OF SINGLE POINT GRADIENT .....
 CPU     0: STEP CPU TIME=     0.000 TOTAL CPU TIME=        0.437 (     0.007 MIN)
 TOTAL WALL CLOCK TIME=        1.819 SECONDS, CPU UTILIZATION IS    24.047%

 EXTERNAL MD STEP =       0
                580000  WORDS OF DYNAMIC MEMORY USED
 EXECUTION OF GAMESS TERMINATED NORMALLY 15:45:38 15-AUG-2023    
 DDI: 263640 bytes (0.3 MB / 0 MWords) used by master data server.

 ----------------------------------------
 CPU timing information for all processes
 ========================================
 0: 0.270 + 0.179 = 0.449
 1: 0.222 + 0.160 = 0.382
 2: 0.232 + 0.136 = 0.369
 3: 0.221 + 0.164 = 0.385
 4: 0.223 + 0.135 = 0.359
 5: 0.243 + 0.143 = 0.387
 6: 0.212 + 0.145 = 0.358
 7: 0.244 + 0.170 = 0.414
 8: 0.237 + 0.165 = 0.403
 9: 0.206 + 0.149 = 0.355
 10: 0.224 + 0.153 = 0.377
 11: 0.222 + 0.143 = 0.365
 12: 0.219 + 0.156 = 0.376
 13: 0.212 + 0.147 = 0.359
 14: 0.208 + 0.175 = 0.384
 15: 0.220 + 0.148 = 0.368
 16: 0.198 + 0.137 = 0.336
 17: 0.255 + 0.153 = 0.409
 18: 0.240 + 0.139 = 0.379
 19: 0.255 + 0.138 = 0.394
 20: 0.237 + 0.135 = 0.372
 21: 0.224 + 0.159 = 0.383
 22: 0.211 + 0.152 = 0.363
 23: 0.206 + 0.131 = 0.337
 24: 0.237 + 0.137 = 0.374
 25: 0.188 + 0.157 = 0.346
 26: 0.231 + 0.137 = 0.369
 27: 0.237 + 0.134 = 0.372
 ----------------------------------------
 ddikick.x: exited gracefully.
