
 Distributed Data Interface kickoff program.
 Initiating 28 compute processes on 1 nodes to run the following command:
 /home/share/local/sbin/gamess/gamess.konst.x butadiene-gradnac-mrsf-singlet_step_1 

          *******************************************************
          *                                                     *
          *          GAMESS VERSION = 30 JUN 2023 (R1)          *
          *                                                     *
          *              doi.org/10.1063/5.0005188              *
          *                                                     *
          **************** 64 BIT LINUX VERSION *****************
 
           git commit: 6c9a940737b8c224b86e735de428d409fbad2446
 

  GAMESS HAS BEEN MADE POSSIBLE WITH IMPORTANT CONTRIBUTIONS FROM
  THE FOLLOWING INDIVIDUALS (IN ALPHABETICAL ORDER):

     IVANA ADAMOVIC, CHRISTINE AIKENS, TOMOKO AKAMA,
     MELISA ALKAN, YURI ALEXEEV, YURIKO AOKI, POOJA ARORA,
     TOSHIO ASADA, ANDREY ASADCHEV, KIM K. BALDRIDGE,
     PRADIPTA BANDYOPADHYAY, TAYLOR A. BARNES, MARIA BARYSZ,
     ROB BELL, JONATHAN BENTZ, COLLEEN BERTONI,
     JERRY A. BOATZ, BRETT BODE, KURT BRORSEN, KURT R. BRORSEN,
     LAIMUTIS BYTAUTAS, CALEB CARLIN, LAURA CARRINGTON,
     GALINA CHABAN, BENOIT CHAMPAGNE, WEI CHEN, MAHITO CHIBA,
     DAN CHIPMAN, CHEOL HO CHOI, TANNER CULPITT,
     DIPAYAN DATTA, PAUL DAY, ALBERT DEFUSCO,
     NUWAN DESILVA, J. EMILIANO DEUSTUA,
     TIM DUDLEY, MICHEL DUPUIS, STEVEN T. ELBERT,
     DMITRI FEDOROV, KATHERINE FERRERAS, MICHAEL FILATOV,
     ALEX FINDLATER,GRAHAM FLETCHER, MARK FREITAG,
     CHRISTIAN FRIEDL, DAVID GARMER, 
     IGOR S. GERASIMOV, KURT GLAESEMANN,
     MARK S. GORDON, JEFFREY R. GOUR, FENG LONG GU,
     EMILIE B. GUIDEZ, ANASTASIA GUNINA, SHARON HAMMES-SCHIFFER,
     MASATAKE HARUTA, KIMIHIKO HIRAO, YASUHIRO IKABATA,
     TZVETELIN IORDANOV, STEPHAN IRLE, KAZUYA ISHIMURA,
     JOE IVANIC, FRANK JENSEN, JAN H. JENSEN, VISVALDAS KAIRYS,
     MUNEAKI KAMIYA, MICHIO KATOUDA, NAOAKI KAWAKAMI, DAN KEMP,
     BERNARD KIRTMAN, KAZUO KITAURA, MARIUSZ KLOBUKOWSKI,
     MASATO KOBAYASHI, KONSTANTIN KOMAROV, PRAKASHAN KORAMBATH,
     JACEK KORCHOWIEC, SHIRO KOSEKI, KAROL KOWALSKI,
     JIMMY KROMANN, STANISLAW A. KUCHARSKI, HENRY KURTZ,
     SAROM SOK LEANG, SEUNGHOON LEE, HUI LI, SHUHUA LI, WEI LI,
     JESSE J. LUTZ, ALEKSANDR O. LYKHIN,
     ILIAS MAGOULAS, MARCIN MAKOWSKI,
     JOANI MATO, NIKITA MATSUNAGA, BENEDETTA MENNUCCI,
     GRANT MERRILL, NORIYUKI MINEZAWA, VLADIMIR MIRONOV,
     EISAKU MIYOSHI, JOHN A. MONTGOMERY JR., HIROTOSHI MORI,
     JONATHAN MULLIN, MONIKA MUSIAL, SHIGERU NAGASE,
     TAKESHI NAGATA, HIROMI NAKAI, TAKAHITO NAKAJIMA,
     YUYA NAKAJIMA, HARUYUKI NAKANO, HIROYA NAKATA, SEAN NEDD,
     HEATHER NETZLOFF, KIET A. NGUYEN, YOSHIO NISHIMOTO,
     BOSILJKA NJEGIC, RYAN OLSON, MIKE PAK, ROBERTO PEVERATI,
     BUU PHAM, PIOTR PIECUCH, ANNA POMOGAEVA, DAVID POOLE,
     SPENCER PRUITT, OLIVIER QUINET, LUKE ROSKOP,
     KLAUS RUEDENBERG, ANDREW SAND, TOSAPORN SATTASATHUCHANA,
     NOZOMI SAWADA, MICHAEL W. SCHMIDT, PATRICK E. SCHNEIDER,
     JUNJI SEINO, PRACHI SHARMA, JUN SHEN, JIM SHOEMAKER,
     YINAN SHU, DEJUN SI, JONATHAN SKONE, LYUDMILA SLIPCHENKO,
     TONY SMITH, JIE SONG, MARK SPACKMAN, CASPER STEINMANN,
     WALT STEVENS, PEIFENG SU, SHUJUN SU, CHET SWALINA,
     CHINAMI TAKASHIMA, TETSUYA TAKETSUGU, ZHEN TAO,
     NANDUN THELLAMUREGE, SEIKEN TOKURA, JACOPO TOMASI,
     TSUGUKI TOUMA, TAKAO TSUNEDA, HIROAKI UMEDA,
     JORGE LUIS GALVEZ VALLEJO, YALI WANG, SIMON WEBB,
     AARON WEST, THERESA L. WINDUS, MARTA WLOCH,
     PENG XU, KIYOSHI YAGI, SUSUMU YANAGISAWA, YANG YANG,
     SOOHAENG YOO, TAKESHI YOSHIKAWA, FEDERICO ZAHARIEV,
     TOBY ZENG

  WHO ARE SUPPORTED BY THEIR INSTITUTION/UNIVERSITY/COMPANY/GROUP
  (IN ALPHABETICAL ORDER):

     EP ANALYTICS,
     FACULTES UNIVERSITAIRES NOTRE-DAME DE LA PAIX,
     INSTITUTE FOR MOLECULAR SCIENCE, IOWA STATE UNIVERSITY,
     JACKSON STATE UNIVERSITY, JOHANNES KEPLER UNIVERSITY LINZ,
     KYUNGPOOK NATIONAL UNIVERSITY
     KYUSHU UNIVERSITY, MICHIGAN STATE UNIVERSITY,
     MIE UNIVERSITY, THE MOLECULAR SCIENCES SOFTWARE INSTITUTE,
     MOSCOW STATE UNIVERSITY,
     N. COPERNICUS UNIVERSITY, NAGOYA UNIVERSITY,
     NANJING UNIVERSITY, NAT. INST. OF ADVANCED INDUSTRIAL
     SCIENCE AND TECHNOLOGY, NATIONAL INST. OF STANDARDS AND
     TECHNOLOGY, NESMEYANOV INSTITUTE OF ORGANOELEMENT COMPOUNDS
     OF RUSSIAN ACADEMY OF SCIENCES, OSAKA PREFECTURE UNIVERSITY,
     PENNSYLVANIA STATE UNIVERSITY, TOKYO INSTITUTE OF TECHNOLOGY,
     UNIVERSITY OF AARHUS, UNIVERSITY OF ALBERTA,
     UNIVERSITY OF CALIFORNIA AT SANTA BARBARA,
     UNIVERSITY OF COPENHAGEN, UNIVERSITY OF IOWA,
     UNIVERSITY OF MEMPHIS, UNIVERSITY OF MINNESOTA,
     UNIVERSITY OF NEBRASKA, UNIVERSITY OF NEW ENGLAND,
     UNIVERSITY OF NOTRE DAME, UNIVERSITY OF PISA,
     UNIVERSITY OF SILESIA, UNIVERSITY OF TOKYO,
     UNIVERSITY OF ZURICH, WASEDA UNIVERSITY,
     YALE UNIVERSITY

  GAMESS SOFTWARE MANAGEMENT TEAM FOR THIS RELEASE:
     MARK S. GORDON (TEAM LEAD),
     BRETT BODE (SENIOR ADVISOR),
     GIUSEPPE BARCA,
     COLLEEN BERTONI,
     KRISTOPHER KEIPERT (ADVISOR),
     SAROM S. LEANG (DEVELOPMENT LEAD),
     BUU PHAM,
     JACKSON HAYES (WEBSITE ADMINISTRATOR),
     PENG XU


 PARALLEL VERSION RUNNING ON       28 PROCESSORS IN        1 NODES.

 EXECUTION OF GAMESS BEGUN 18:20:46 15-AUG-2023    

            ECHO OF THE FIRST FEW INPUT CARDS -
 INPUT CARD> $CONTRL SCFTYP=ROHF RUNTYP=GRADNAC DFTTYP=BHHLYP ICHARG=0                      
 INPUT CARD>         TDDFT=MRSF   MAXIT=200 MULT=3 NPRINT=7 COORD=UNIQUE     $END           
 INPUT CARD> $DFT SG1=.T.                                                    $END           
 INPUT CARD> $scf  dirscf=.f. nconv=6 npunch=2                               $END           
 INPUT CARD> $TDDFT NSTATE=3 IROOT=2 TAMMD=.t. MULT=1                        $END           
 INPUT CARD> $BASIS GBASIS=N31 NGAUSS=6                                      $END           
 INPUT CARD> $system timlim=999999100 mwords=500                             $END           
 INPUT CARD> $GUESS GUESS=MOREAD NORB=26                                     $END           
 INPUT CARD> $data                                                                          
 INPUT CARD> BUTADIENE step                                                                 
 INPUT CARD> C1                                                                             
 INPUT CARD>C           6.0        1.6058893036        1.5127200887       -1.8515045014     
 INPUT CARD>C           6.0        1.8301504922        2.1538872203       -2.9318317262     
 INPUT CARD>H           1.0        0.7810049449        1.8524941439       -1.2235378140     
 INPUT CARD>H           1.0        2.0668155003        0.5848970629       -1.5475894196     
 INPUT CARD>H           1.0        1.3925365369        3.0655591914       -3.1478027622     
 INPUT CARD>H           1.0        2.3917961326        1.8740529673       -3.7679514237     
 INPUT CARD> $END                                                                           
 INPUT CARD> $VEC                                                                           
 INPUT CARD> 1  1 9.93471242E-01 3.15101138E-02-6.14798547E-05 4.51415341E-04-9.22832185E-04
 INPUT CARD> 1  2-2.40945995E-02 5.34971985E-05-1.72808555E-03 2.61604942E-03 6.19633173E-02
 INPUT CARD> 1  3 7.85835875E-05 2.01909669E-04 5.89138436E-04-9.81351115E-04 8.59043581E-03
 INPUT CARD> 1  4-8.98842758E-04-2.22165109E-03 3.87270141E-03-6.17641915E-04 4.15254046E-03
 INPUT CARD> 1  5-7.08093848E-04 3.68505811E-03-2.63494513E-04 4.61551754E-04-2.99592615E-04
 INPUT CARD> 1  6 6.41039183E-04                                                            
 INPUT CARD> 2  1-6.26264346E-02-3.87738538E-03-1.87687353E-04-6.25292633E-04 1.06577417E-03
 INPUT CARD> 2  2 1.09417468E-02 6.72479395E-04 2.41029378E-03-3.88598382E-03 9.93452220E-01
 INPUT CARD> 2  3 3.21523255E-02-3.54171261E-04-3.53974546E-04 6.68622182E-04-2.57239259E-02
 INPUT CARD> 2  4 9.38075049E-04 1.01546748E-03-2.29201209E-03-1.55751970E-04-4.09228576E-05
 INPUT CARD> 2  5-1.82471823E-04 1.29871723E-04-7.65591496E-04 4.72233057E-03-7.59799372E-04
 INPUT CARD> 2  6 4.12314439E-03                                                            
 INPUT CARD> 3  1-1.59005059E-01 3.12239539E-01 1.46033961E-02 7.15921063E-02-1.22113299E-01
 INPUT CARD> 3  2 2.05593453E-01-3.02015116E-03 3.20604866E-03-7.57630286E-03-1.66301535E-01
 INPUT CARD> 3  3 3.24572837E-01-3.17360964E-02-5.96324307E-02 1.08548343E-01 2.06930366E-01
 INPUT CARD> 3  4-2.26226773E-03-3.00209743E-04 1.83669753E-03 7.82959017E-02 1.63879986E-02
 INPUT CARD> 3  5 7.27768844E-02 1.36623420E-02 9.04616660E-02 1.73699292E-02 8.20517579E-02
 INPUT CARD> 3  6 1.38676488E-02                                                            
 INPUT CARD> 4  1 1.25205001E-01-2.46953916E-01 3.08483255E-02 7.31946798E-02-9.77876519E-02
 INPUT CARD> 4  2-2.59820804E-01 9.94552119E-03 2.52256381E-02-2.28110978E-02-1.17207805E-01
 INPUT CARD> 4  3 2.32031002E-01 2.43417318E-02 1.11769388E-01-1.80858415E-01 2.43342545E-01
 INPUT CARD> 4  4 4.78501876E-03 2.15298932E-02-4.67101112E-02-1.33013424E-01-6.18753174E-02
 INPUT CARD> 4  5-1.43567535E-01-6.35062207E-02 1.64967421E-01 7.50105503E-02 1.62518258E-01
 INPUT CARD> 4  6 7.12399312E-02                                                            
 INPUT CARD> 5  1 4.26164095E-03-9.29070411E-03-2.22668074E-01 2.44487739E-01 4.81300747E-02
 INPUT CARD> 5  2-1.77194208E-02-9.28086359E-02 9.40476766E-02 1.69517957E-02 5.63974761E-03
 INPUT CARD> 5  3-1.24073461E-02-2.11616307E-01 2.25359428E-01 1.41711318E-01-2.05020883E-02
 INPUT CARD> 5  4-7.56957191E-02 8.73481020E-02 5.70086173E-02 1.41981294E-01 9.32695292E-02
 INPUT CARD> 5  5-1.60532660E-01-1.01919902E-01 1.38965860E-01 9.03241615E-02-1.65513394E-01
 INPUT CARD> 5  6-1.05591061E-01                                                            
 INPUT CARD> 6  1 4.95264913E-03-1.88742371E-03 1.13811866E-01 2.02670701E-01-3.57718332E-01
    500000000 WORDS OF MEMORY AVAILABLE

 WARNING: LARGE MAXIT:      200

     BASIS OPTIONS
     -------------
     GBASIS=N31          IGAUSS=       6      POLAR=NONE    
     NDFUNC=       0     NFFUNC=       0     DIFFSP=       F
     NPFUNC=       0      DIFFS=       F     BASNAM=        


     RUN TITLE
     ---------
  BUTADIENE step                                                                 

 THE POINT GROUP OF THE MOLECULE IS C1      
 THE ORDER OF THE PRINCIPAL AXIS IS     0

 ATOM      ATOMIC                      COORDINATES (BOHR)
           CHARGE         X                   Y                   Z
 C           6.0     3.0346907504        2.8586264638       -3.4988361727
 C           6.0     3.4584829466        4.0702566548       -5.5403586046
 H           1.0     1.4758853409        3.5007063258       -2.3121512041
 H           1.0     3.9057149627        1.1052951799       -2.9245199445
 H           1.0     2.6315124826        5.7930668709       -5.9484846840
 H           1.0     4.5198393091        3.5414465947       -7.1203957258

          INTERNUCLEAR DISTANCES (ANGS.)
          ------------------------------

                1 C          2 C          3 H          4 H          5 H     

   1 C       0.0000000    1.2761251 *  1.0909733 *  1.0796633 *  2.0340152 *
   2 C       1.2761251 *  0.0000000    2.0272672 *  2.1056750 *  1.0340673 *
   3 H       1.0909733 *  2.0272672 *  0.0000000    1.8344265 *  2.3554815 *
   4 H       1.0796633 *  2.1056750 *  1.8344265 *  0.0000000    3.0280389  
   5 H       2.0340152 *  1.0340673 *  2.3554815 *  3.0280389    0.0000000  
   6 H       2.1026126 *  1.0453943 *  3.0115036    2.5879611 *  1.6741539 *

                6 H     

   1 C       2.1026126 *
   2 C       1.0453943 *
   3 H       3.0115036  
   4 H       2.5879611 *
   5 H       1.6741539 *
   6 H       0.0000000  

  * ... LESS THAN  3.000


     ATOMIC BASIS SET
     ----------------
 THE CONTRACTED PRIMITIVE FUNCTIONS HAVE BEEN UNNORMALIZED
 THE CONTRACTED BASIS FUNCTIONS ARE NOW NORMALIZED TO UNITY

  SHELL TYPE  PRIMITIVE        EXPONENT          CONTRACTION COEFFICIENT(S)

 C         

      1   S       1          3047.5248800    0.001834737132
      1   S       2           457.3695180    0.014037322813
      1   S       3           103.9486850    0.068842622264
      1   S       4            29.2101553    0.232184443216
      1   S       5             9.2866630    0.467941348435
      1   S       6             3.1639270    0.362311985337

      2   L       7             7.8682723   -0.119332419775    0.068999066591
      2   L       8             1.8812885   -0.160854151696    0.316423960957
      2   L       9             0.5442493    1.143456437840    0.744308290898

      3   L      10             0.1687145    1.000000000000    1.000000000000

 C         

      4   S      11          3047.5248800    0.001834737132
      4   S      12           457.3695180    0.014037322813
      4   S      13           103.9486850    0.068842622264
      4   S      14            29.2101553    0.232184443216
      4   S      15             9.2866630    0.467941348435
      4   S      16             3.1639270    0.362311985337

      5   L      17             7.8682723   -0.119332419775    0.068999066591
      5   L      18             1.8812885   -0.160854151696    0.316423960957
      5   L      19             0.5442493    1.143456437840    0.744308290898

      6   L      20             0.1687145    1.000000000000    1.000000000000

 H         

      7   S      21            18.7311370    0.033494604338
      7   S      22             2.8253944    0.234726953484
      7   S      23             0.6401217    0.813757326146

      8   S      24             0.1612778    1.000000000000

 H         

      9   S      25            18.7311370    0.033494604338
      9   S      26             2.8253944    0.234726953484
      9   S      27             0.6401217    0.813757326146

     10   S      28             0.1612778    1.000000000000

 H         

     11   S      29            18.7311370    0.033494604338
     11   S      30             2.8253944    0.234726953484
     11   S      31             0.6401217    0.813757326146

     12   S      32             0.1612778    1.000000000000

 H         

     13   S      33            18.7311370    0.033494604338
     13   S      34             2.8253944    0.234726953484
     13   S      35             0.6401217    0.813757326146

     14   S      36             0.1612778    1.000000000000

 TOTAL NUMBER OF BASIS SET SHELLS             =   14
 NUMBER OF CARTESIAN GAUSSIAN BASIS FUNCTIONS =   26
 NUMBER OF ELECTRONS                          =   16
 CHARGE OF MOLECULE                           =    0
 SPIN MULTIPLICITY                            =    3
 NUMBER OF OCCUPIED ORBITALS (ALPHA)          =    9
 NUMBER OF OCCUPIED ORBITALS (BETA )          =    7
 TOTAL NUMBER OF ATOMS                        =    6
 THE NUCLEAR REPULSION ENERGY IS       34.4162966049

 SELECTED MURRAY-HANDY-LAMING RADIAL GRID

 LEGACY BECKE'S FUZZY CELL METHOD

 SELECTED ORIGINAL BECKE'S PARTITION FUNCTION

     STANDARD GRID ONE (SG-1) PRUNED GRID OPTIONS
     -------------------------------------------
     DFTTYP=BHHLYP  
     GRID HAS 50 RADIAL POINTS AND AT MOST
      194 ANGULAR POINTS, BEFORE PRUNING
     SWOFF =    5.00E-03 (PURE SCF -> DFT)
     COARSE GRID SWITCHING IS NOT AVAILABLE
     THRESH=    0.00E+00 GTHRE=    1.00E+00

 GRIMME'S EMPIRICAL DISPERSION CORRECTION= F

     $CONTRL OPTIONS
     ---------------
 SCFTYP=ROHF         RUNTYP=GRADNAC      EXETYP=RUN     
 MPLEVL=       0     CITYP =NONE         CCTYP =NONE         VBTYP =NONE    
 DFTTYP=BHHLYP       TDDFT =MRSF    
 MULT  =       3     ICHARG=       0     NZVAR =       0     COORD =UNIQUE  
 PP    =NONE         RELWFN=NONE         LOCAL =NONE         NUMGRD=       F
 ISPHER=      -1     NOSYM =       0     MAXIT =     200     UNITS =ANGS    
 PLTORB=       F     MOLPLT=       F     AIMPAC=       F     FRIEND=        
 NPRINT=       7     IREST =       0     GEOM  =INPUT   
 NORMF =       0     NORMP =       0     ITOL  =      20     ICUT  =       9
 INTTYP=BEST         GRDTYP=BEST         QMTTOL= 1.0E-06

     $SYSTEM OPTIONS
     ---------------
  REPLICATED MEMORY=   500000000 WORDS (ON EVERY NODE).
 DISTRIBUTED MEMDDI=           0 MILLION WORDS IN AGGREGATE,
 MEMDDI DISTRIBUTED OVER  28 PROCESSORS IS           0 WORDS/PROCESSOR.
 TOTAL MEMORY REQUESTED ON EACH PROCESSOR=   500000000 WORDS.
 TIMLIM=   999999100.00 MINUTES, OR  694443.8 DAYS.
 PARALL= T  BALTYP=  DLB     KDIAG=    0  COREFL= F
 MXSEQ2=     300 MXSEQ3=     150  mem10=         0  mem22=         0

          ----------------
          PROPERTIES INPUT
          ----------------

     MOMENTS            FIELD           POTENTIAL          DENSITY
 IEMOM =       1   IEFLD =       0   IEPOT =       0   IEDEN =       0
 WHERE =COMASS     WHERE =NUCLEI     WHERE =NUCLEI     WHERE =NUCLEI  
 OUTPUT=BOTH       OUTPUT=BOTH       OUTPUT=BOTH       OUTPUT=BOTH    
 IEMINT=       0   IEFINT=       0                     IEDINT=       0
                                                       MORB  =       0
          EXTRAPOLATION IN EFFECT
          DIIS IN EFFECT
 ORBITAL PRINTING OPTION: NPREO=     1    26     2     1

     -------------------------------
     INTEGRAL TRANSFORMATION OPTIONS
     -------------------------------
     NWORD  =            0
     CUTTRF = 1.0E-09     MPTRAN =       0
     DIRTRF =       F     AOINTS =DUP     

          ----------------------
          INTEGRAL INPUT OPTIONS
          ----------------------
 NOPK  =       1 NORDER=       0 SCHWRZ=       T

          ----------------------
          TDDFT INPUT PARAMETERS
          ----------------------
 NSTATE=       3 IROOT =       2 MULT  =       1
 MAXVEC=      50 NTRIAL=       1 CNVTOL=  1.00E-07
 TDPRP =       F TRNSD =       F UNRLX =       F
 ALTRN =       F FED   =       F
 IFEDAT=       0       0       0       0
 TAMMD =       T TPA   =       F
 ALPHA =       F BETA  =       F
 PFREQ =    0.00    0.00
   NRAD=      48   NLEB=     110

     ------------------------------------------
     THE POINT GROUP IS C1 , NAXIS= 0, ORDER= 1
     ------------------------------------------

     DIMENSIONS OF THE SYMMETRY SUBSPACES ARE
 A   =   26

 ..... DONE SETTING UP THE RUN .....
 CPU     0: STEP CPU TIME=     0.031 TOTAL CPU TIME=        0.033 (     0.001 MIN)
 TOTAL WALL CLOCK TIME=        0.063 SECONDS, CPU UTILIZATION IS    52.266%

                    --------------------------------
                    SINGLE POINT ENERGY AND GRADIENT
                    --------------------------------

          ********************
          1 ELECTRON INTEGRALS
          ********************
 ...... END OF ONE-ELECTRON INTEGRALS ......
 CPU     0: STEP CPU TIME=     0.001 TOTAL CPU TIME=        0.033 (     0.001 MIN)
 TOTAL WALL CLOCK TIME=        0.082 SECONDS, CPU UTILIZATION IS    40.607%

          -------------
          GUESS OPTIONS
          -------------
          GUESS =MOREAD            NORB  =      26          NORDER=       0
          MIX   =       F          PRTMO =       F          PUNMO =       F
          TOLZ  = 1.0E-08          TOLE  = 1.0E-05
          SYMDEN=       F          PURIFY=       F

 INITIAL GUESS ORBITALS GENERATED BY MOREAD   ROUTINE.

 SYMMETRIES FOR INITIAL GUESS ORBITALS FOLLOW.  ALPHA SET(S).
     9 ORBITALS ARE OCCUPIED (    2 CORE ORBITALS).
     3=A        4=A        5=A        6=A        7=A        8=A        9=A   
    10=A       11=A       12=A       13=A       14=A       15=A       16=A   
    17=A       18=A       19=A   

 SYMMETRIES FOR INITIAL GUESS ORBITALS FOLLOW.   BETA SET(S).
     7 ORBITALS ARE OCCUPIED (    2 CORE ORBITALS).
     3=A        4=A        5=A        6=A        7=A        8=A        9=A   
    10=A       11=A       12=A       13=A       14=A       15=A       16=A   
    17=A   
 ...... END OF INITIAL ORBITAL SELECTION ......
 CPU     0: STEP CPU TIME=     0.002 TOTAL CPU TIME=        0.035 (     0.001 MIN)
 TOTAL WALL CLOCK TIME=        0.084 SECONDS, CPU UTILIZATION IS    41.603%

                    ----------------------
                    AO INTEGRAL TECHNOLOGY
                    ----------------------
     S,P,L SHELL ROTATED AXIS INTEGRALS, REPROGRAMMED BY
        KAZUYA ISHIMURA (IMS) AND JOSE SIERRA (SYNSTAR).
     S,P,D,L SHELL ROTATED AXIS INTEGRALS PROGRAMMED BY
        KAZUYA ISHIMURA (INSTITUTE FOR MOLECULAR SCIENCE).
     S,P,D,F,G SHELL TO TOTAL QUARTET ANGULAR MOMENTUM SUM 5,
        ERIC PROGRAM BY GRAHAM FLETCHER (ELORET AND NASA ADVANCED
        SUPERCOMPUTING DIVISION, AMES RESEARCH CENTER).
     S,P,D,F,G,L SHELL GENERAL RYS QUADRATURE PROGRAMMED BY
        MICHEL DUPUIS (PACIFIC NORTHWEST NATIONAL LABORATORY).

          --------------------
          2 ELECTRON INTEGRALS
          --------------------

 THE -PK- OPTION IS OFF, THE INTEGRALS ARE NOT IN SUPERMATRIX FORM.
 STORING   15000 INTEGRALS/RECORD ON DISK, USING 12 BYTES/INTEGRAL.
 TWO ELECTRON INTEGRAL EVALUATION REQUIRES   89461 WORDS OF MEMORY.
 SCHWARZ INEQUALITY OVERHEAD:       351 INTEGRALS, T=        0.00
 II,JST,KST,LST =  1  1  1  1 NREC =         1 INTLOC =    1
 II,JST,KST,LST =  2  1  1  1 NREC =         1 INTLOC =    1
 II,JST,KST,LST =  3  1  1  1 NREC =         1 INTLOC =    1
 II,JST,KST,LST =  4  1  1  1 NREC =         1 INTLOC =    1
 II,JST,KST,LST =  5  1  1  1 NREC =         1 INTLOC =    1
 II,JST,KST,LST =  6  1  1  1 NREC =         1 INTLOC =    1
 II,JST,KST,LST =  7  1  1  1 NREC =         1 INTLOC = 3438
 II,JST,KST,LST =  8  1  1  1 NREC =         1 INTLOC = 3438
 II,JST,KST,LST =  9  1  1  1 NREC =         1 INTLOC = 3438
 II,JST,KST,LST = 10  1  1  1 NREC =         1 INTLOC = 3438
 II,JST,KST,LST = 11  1  1  1 NREC =         1 INTLOC = 3438
 II,JST,KST,LST = 12  1  1  1 NREC =         1 INTLOC = 3438
 II,JST,KST,LST = 13  1  1  1 NREC =         1 INTLOC = 3439
 II,JST,KST,LST = 14  1  1  1 NREC =         1 INTLOC = 4219
 SCHWARZ INEQUALITY TEST SKIPPED           6 INTEGRAL BLOCKS.
 TOTAL NUMBER OF NONZERO TWO-ELECTRON INTEGRALS =               60121
         28 INTEGRAL RECORDS WERE STORED ON DISK FILE  8.
  ...... END OF TWO-ELECTRON INTEGRALS .....
 CPU     0: STEP CPU TIME=     0.009 TOTAL CPU TIME=        0.044 (     0.001 MIN)
 TOTAL WALL CLOCK TIME=        0.097 SECONDS, CPU UTILIZATION IS    45.590%

          ---------------------------
            RO-BHHLYP SCF CALCULATION
          ---------------------------

     NUCLEAR ENERGY =        34.4162966049
     MAXIT =200     NPUNCH=  2     MULT=  3
     EXTRAP=T  DAMP=F  SHIFT=F  RSTRCT=F  DIIS=T  SOSCF=F
         DENSITY MATRIX CONVERGENCE THRESHOLD=  1.00E-06
     COARSE -> FINE DFT GRID SWITCH THRESHOLD=  3.00E-04 (SWITCH IN $DFT)
                   HF -> DFT SWITCH THRESHOLD=  0.00E+00 (SWOFF IN $DFT)
     ROHF CANONICALIZATION PARAMETERS
             C-C     O-O     V-V
     ALPHA  0.5000  0.5000  0.5000
     BETA   0.5000  0.5000  0.5000
     MEMORY REQUIRED FOR UHF/ROHF ITERS=    181733 WORDS.

     EXCHANGE FUNCTIONAL   =B88&HFX   
     CORRELATION FUNCTIONAL=LYP88     
     DFT THRESHOLD         =.172E-07
 FOR AN EULER-MACLAURIN QUADRATURE USING  50 RADIAL POINTS:
 SMALLEST GAUSSIAN PRIMITIVE EXPONENT=        0.1612777588 OF TYPE -S-
 ON ATOM NUMBER   3 HAS RADIAL NORMALIZATION=  1.000000
  LARGEST GAUSSIAN PRIMITIVE EXPONENT=     3047.5248800000 OF TYPE -S-
 ON ATOM NUMBER   1 HAS RADIAL NORMALIZATION=  1.000000

 ITER EX      TOTAL ENERGY        E CHANGE  DENSITY CHANGE    DIIS ERROR
          * * *   INITIATING DIIS PROCEDURE   * * *
   1  0      -78.3234437851   -78.3234437851   0.004308726   0.003158760
   2  1      -78.3234824749    -0.0000386897   0.002351235   0.001333224
   3  2      -78.3234881712    -0.0000056963   0.000471364   0.000631633
   4  3      -78.3234888375    -0.0000006663   0.000086588   0.000060366
   5  4      -78.3234888507    -0.0000000132   0.000031053   0.000030089
   6  5      -78.3234888529    -0.0000000023   0.000006354   0.000004048
   7  6      -78.3234888530    -0.0000000001   0.000001477   0.000000561
   8  7      -78.3234888530    -0.0000000000   0.000000398   0.000000057

          -----------------
          DENSITY CONVERGED
          -----------------
     TIME TO FORM FOCK OPERATORS=       0.0 SECONDS (       0.0 SEC/ITER)
     TIME TO SOLVE SCF EQUATIONS=       0.0 SECONDS (       0.0 SEC/ITER)

 THE CONVERGED ORBITALS WILL UNDERGO GUEST/SAUNDERS
 CANONICALIZATION FOR SPIN-FLIP TDDFT.

 FINAL RO-BHHLYP ENERGY IS      -78.3234888530 AFTER   8 ITERATIONS
 DFT EXCHANGE + CORRELATION ENERGY =        -6.4325799613
 TOTAL ELECTRON NUMBER             =        15.9996512403

          --------------------
          SPIN SZ   =    1.000
          S-SQUARED =    2.000
          --------------------

          ------------
          EIGENVECTORS
          ------------

                      1          2          3          4          5
                  -10.5735   -10.5629    -0.8949    -0.6717    -0.5471
                     A          A          A          A          A   
    1  C  1  S    0.992949  -0.070466  -0.159441  -0.124422   0.004230
    2  C  1  S    0.031443  -0.004115   0.313454   0.245458  -0.009113
    3  C  1  X   -0.000065  -0.000187   0.014587  -0.031709  -0.223861
    4  C  1  Y    0.000433  -0.000625   0.071061  -0.075495   0.247468
    5  C  1  Z   -0.000898   0.001069  -0.121692   0.101429   0.045146
    6  C  1  S   -0.023903   0.011056   0.207256   0.260301  -0.017961
    7  C  1  X    0.000064   0.000674  -0.002922  -0.010398  -0.093483
    8  C  1  Y   -0.001684   0.002415   0.002990  -0.025406   0.094888
    9  C  1  Z    0.002552  -0.003898  -0.007601   0.023477   0.016176
   10  C  2  S    0.069820   0.992943  -0.165329   0.117976   0.005320
   11  C  2  S    0.000334   0.032026   0.323217  -0.233553  -0.011751
   12  C  2  X    0.000198  -0.000350  -0.031543  -0.024276  -0.209102
   13  C  2  Y    0.000581  -0.000375  -0.060856  -0.108221   0.220964
   14  C  2  Z   -0.000969   0.000684   0.109586   0.176875   0.143240
   15  C  2  S    0.008318  -0.025510   0.207903  -0.247975  -0.019583
   16  C  2  X   -0.000888   0.000932  -0.002396  -0.004506  -0.075692
   17  C  2  Y   -0.002196   0.001066  -0.000188  -0.021469   0.087306
   18  C  2  Z    0.003828  -0.002340   0.001876   0.046393   0.057881
   19  H  3  S   -0.000616  -0.000154   0.078721   0.133593   0.142508
   20  H  3  S    0.004142  -0.000064   0.016665   0.062423   0.094329
   21  H  4  S   -0.000710  -0.000178   0.073396   0.144555  -0.163430
   22  H  4  S    0.003685   0.000106   0.013839   0.064542  -0.104759
   23  H  5  S   -0.000271  -0.000738   0.088287  -0.162671   0.135910
   24  H  5  S    0.000491   0.004593   0.016898  -0.074448   0.089092
   25  H  6  S   -0.000305  -0.000741   0.080698  -0.161623  -0.164254
   26  H  6  S    0.000666   0.004046   0.013725  -0.071596  -0.105778

                      6          7          8          9         10
                   -0.5126    -0.4070    -0.2505     0.0066     0.1761
                     A          A          A          A          A   
    1  C  1  S   -0.004131   0.000245  -0.006573   0.010440  -0.087813
    2  C  1  S    0.000041  -0.000940   0.014782  -0.022835   0.117455
    3  C  1  X   -0.115805   0.245435   0.261427  -0.301247  -0.136996
    4  C  1  Y   -0.199320  -0.179255   0.247113  -0.255226  -0.014603
    5  C  1  Z    0.356776  -0.052367   0.231395  -0.234623   0.149023
    6  C  1  S    0.061838  -0.012031   0.026871  -0.048935   1.630671
    7  C  1  X   -0.040233   0.131260   0.149690  -0.398724  -0.418629
    8  C  1  Y   -0.053894  -0.101346   0.156247  -0.325418  -0.127203
    9  C  1  Z    0.100420  -0.028638   0.140694  -0.311913   0.508213
   10  C  2  S    0.018149  -0.002064  -0.000917  -0.006022  -0.053677
   11  C  2  S   -0.042211   0.006808   0.002318   0.013596   0.078694
   12  C  2  X    0.026961  -0.159196   0.357307   0.367048  -0.037210
   13  C  2  Y    0.231971   0.245713   0.177268   0.201497   0.136913
   14  C  2  Z   -0.327929   0.132960   0.153557   0.187078  -0.067060
   15  C  2  S   -0.022304   0.010422   0.003439   0.017037   1.105685
   16  C  2  X    0.005052  -0.085583   0.223607   0.484856  -0.027431
   17  C  2  Y    0.073335   0.127318   0.100272   0.270205   0.551193
   18  C  2  Z   -0.095438   0.068846   0.093297   0.237818  -0.430041
   19  H  3  S    0.148596  -0.204823   0.026730   0.029982  -0.059078
   20  H  3  S    0.116582  -0.179992   0.026364   0.071260  -1.471375
   21  H  4  S    0.139363   0.189022  -0.024204  -0.005858  -0.000942
   22  H  4  S    0.110061   0.164461  -0.022991  -0.015366  -0.687439
   23  H  5  S    0.137755   0.205053  -0.025325   0.013525  -0.030683
   24  H  5  S    0.105441   0.175984  -0.021358   0.036912  -1.225250
   25  H  6  S    0.104326  -0.201345   0.027724  -0.024719   0.025158
   26  H  6  S    0.082567  -0.175789   0.028214  -0.059004  -0.468441

                     11         12         13         14         15
                    0.1929     0.2148     0.3022     0.4056     0.5330
                     A          A          A          A          A   
    1  C  1  S    0.037928   0.094273  -0.004413  -0.070621  -0.018852
    2  C  1  S   -0.047290  -0.110728  -0.007949   0.016237  -0.316749
    3  C  1  X   -0.182705   0.023636  -0.211577   0.034748  -0.159186
    4  C  1  Y    0.222504   0.051651   0.178015   0.086835  -0.225697
    5  C  1  Z   -0.016413  -0.045577   0.067582  -0.118772   0.510479
    6  C  1  S   -0.739198  -1.566479   0.246439   3.830555  -0.380628
    7  C  1  X   -0.524520   0.025490  -1.176359   0.594769   0.206776
    8  C  1  Y    0.625968   0.106904   1.296528   1.744294   0.420011
    9  C  1  Z   -0.111495   0.032355   0.320402  -2.792528  -0.779273
   10  C  2  S    0.018665  -0.118413   0.005503   0.067069  -0.021754
   11  C  2  S   -0.020365   0.136085   0.006898  -0.013673  -0.342876
   12  C  2  X   -0.141902   0.020422   0.170149   0.027383   0.051592
   13  C  2  Y    0.149537   0.045767  -0.240059   0.084168   0.325392
   14  C  2  Z    0.147620  -0.123599  -0.094578  -0.154073  -0.421969
   15  C  2  S   -0.464003   2.263319  -0.351336  -3.589605  -0.052293
   16  C  2  X   -0.321030   0.049814   1.169520   0.578840  -0.171608
   17  C  2  Y    0.325763   0.085577  -1.273951   1.674703  -0.741936
   18  C  2  Z    0.476009  -0.357503  -0.661870  -2.924736   1.081965
   19  H  3  S   -0.051420   0.032406   0.029433   0.107367   0.091103
   20  H  3  S   -0.574447   0.772000  -1.534294   0.474727  -0.024152
   21  H  4  S    0.081231   0.027955  -0.045269   0.067008  -0.007656
   22  H  4  S    1.529436   0.892717   1.457663   0.741340   0.144633
   23  H  5  S   -0.067366  -0.018977  -0.026840  -0.062343   0.086852
   24  H  5  S   -0.596504  -1.203098   1.806369  -0.698934   0.188422
   25  H  6  S    0.073151  -0.018572   0.026235  -0.026739  -0.015589
   26  H  6  S    1.273315  -1.390030  -1.594569  -0.895905   0.288861

                     16         17         18         19         20
                    0.6175     0.6361     0.7168     0.7766     0.8539
                     A          A          A          A          A   
    1  C  1  S   -0.002326  -0.000430   0.001402  -0.028070   0.090469
    2  C  1  S    0.028795  -0.037876  -0.004821  -0.923351   0.120123
    3  C  1  X    0.480457  -0.234429  -0.544278   0.029283  -0.210984
    4  C  1  Y    0.416889   0.354971  -0.384493  -0.015776  -0.231531
    5  C  1  Z    0.354199   0.025311  -0.375585  -0.043418   0.583110
    6  C  1  S    0.005267   0.324999   0.033692   1.995772  -1.159883
    7  C  1  X   -0.464531   0.483235   0.890505  -0.138069   0.333944
    8  C  1  Y   -0.398396  -0.591591   0.604178  -0.094391  -0.014895
    9  C  1  Z   -0.275853   0.018221   0.514870   0.205948  -0.308903
   10  C  2  S   -0.001815   0.006745   0.000232  -0.025595  -0.091019
   11  C  2  S    0.017929  -0.018190   0.009180  -0.951141  -0.128008
   12  C  2  X    0.561716  -0.364629   0.586807   0.028263  -0.083959
   13  C  2  Y    0.315311   0.276456   0.379259  -0.057233  -0.397399
   14  C  2  Z    0.312883   0.182972   0.333678   0.043099   0.555329
   15  C  2  S    0.039301   0.094576  -0.021374   1.653118   1.484191
   16  C  2  X   -0.486941   0.723666  -0.866990   0.029569  -0.072815
   17  C  2  Y   -0.313577  -0.604849  -0.578439   0.633619   0.394844
   18  C  2  Z   -0.299042  -0.628593  -0.596194  -0.797875  -0.441230
   19  H  3  S    0.000672   0.285957   0.047937  -0.472507   0.398040
   20  H  3  S   -0.079347   0.141215   0.020442  -0.262179   0.272617
   21  H  4  S   -0.014587  -0.399256  -0.024975  -0.408454   0.499544
   22  H  4  S    0.005272  -0.212697   0.024191  -0.223618  -0.114467
   23  H  5  S    0.004891   0.363140   0.032487  -0.464197  -0.364990
   24  H  5  S    0.045792   0.186055  -0.030295  -0.633003  -0.395149
   25  H  6  S   -0.012230  -0.414992  -0.037278  -0.390896  -0.473053
   26  H  6  S   -0.067696  -0.347136  -0.032424  -0.488307  -0.147539

                     21         22         23         24         25
                    0.9713     1.0170     1.0671     1.1313     1.2502
                     A          A          A          A          A   
    1  C  1  S    0.007763   0.005537   0.038480   0.003997  -0.005392
    2  C  1  S   -0.027555  -0.275466  -1.261468   0.074305  -1.444375
    3  C  1  X    0.788468   0.146069   0.100195  -0.052207  -0.095976
    4  C  1  Y   -0.774636  -0.011168   0.403402  -0.046734  -0.293596
    5  C  1  Z   -0.210637  -0.141519  -0.514747   0.121853   0.478100
    6  C  1  S    0.162694   0.383687   2.244332  -0.791330   4.756875
    7  C  1  X   -2.125417   0.322087  -0.146619   0.104740   0.705076
    8  C  1  Y    2.295174  -0.614230  -0.515358  -0.123948   0.491335
    9  C  1  Z    0.513925   0.049335   0.654803   0.035400  -1.728669
   10  C  2  S   -0.006586  -0.000140   0.006066   0.042288   0.009569
   11  C  2  S   -0.096328   0.000813  -0.218767  -1.435804   1.297879
   12  C  2  X   -0.292903   0.590853  -0.074584  -0.053687  -0.118455
   13  C  2  Y    0.306480  -0.701712   0.222402  -0.353538  -0.288903
   14  C  2  Z    0.210626  -0.388946  -0.097062   0.532179   0.535266
   15  C  2  S   -0.028568   0.051295   0.068435   2.988008  -4.601092
   16  C  2  X    1.403743  -1.354757   0.115966  -0.054054  -0.019781
   17  C  2  Y   -1.438699   1.499576  -0.332798   0.365946   1.344256
   18  C  2  Z   -0.891164   0.919561   0.155651  -0.403329  -1.374093
   19  H  3  S    0.452086   0.529521   0.577355   0.039109   0.010902
   20  H  3  S   -1.865625  -0.501628  -1.145896   0.213247  -0.043613
   21  H  4  S   -0.269681  -0.295134   0.761205   0.030781  -0.468435
   22  H  4  S    1.858160  -0.088178  -1.491391   0.076991  -0.199682
   23  H  5  S    0.059660   0.582900  -0.098795   0.714513   0.078085
   24  H  5  S    0.828965  -1.652895   0.408903  -1.407507  -0.041441
   25  H  6  S   -0.121399  -0.551704   0.190621   0.716519   0.537669
   26  H  6  S   -0.971285   1.785959  -0.192144  -1.260348   0.110787

                     26
                    1.3032
                     A   
    1  C  1  S   -0.016419
    2  C  1  S   -0.573335
    3  C  1  X    0.025003
    4  C  1  Y   -0.108380
    5  C  1  Z    0.083936
    6  C  1  S    2.551054
    7  C  1  X   -1.510182
    8  C  1  Y    2.418557
    9  C  1  Z   -0.471449
   10  C  2  S    0.019334
   11  C  2  S    0.446519
   12  C  2  X   -0.007574
   13  C  2  Y   -0.081054
   14  C  2  Z    0.122130
   15  C  2  S   -2.515177
   16  C  2  X    1.716121
   17  C  2  Y   -1.090756
   18  C  2  Z   -1.774691
   19  H  3  S   -0.843226
   20  H  3  S   -0.569532
   21  H  4  S    0.663967
   22  H  4  S    0.679604
   23  H  5  S    0.826090
   24  H  5  S    0.559568
   25  H  6  S   -0.533934
   26  H  6  S   -0.701325
 ...... END OF ROHF CALCULATION ......
 CPU     0: STEP CPU TIME=     0.045 TOTAL CPU TIME=        0.089 (     0.001 MIN)
 TOTAL WALL CLOCK TIME=        0.265 SECONDS, CPU UTILIZATION IS    33.813%

     ---------------------------------------------------------------------
     PROPERTIES FOR THE BHHLYP   DFT FUNCTIONAL (ROHF TYPE) DENSITY MATRIX
     ---------------------------------------------------------------------

          -----------------
          ENERGY COMPONENTS
          -----------------

         WAVEFUNCTION NORMALIZATION =       1.0000000000

                ONE ELECTRON ENERGY =    -171.9525868921
                TWO ELECTRON ENERGY =      59.2128014342
           NUCLEAR REPULSION ENERGY =      34.4162966049
                                      ------------------
                       TOTAL ENERGY =     -78.3234888530

 ELECTRON-ELECTRON POTENTIAL ENERGY =      59.2128014342
  NUCLEUS-ELECTRON POTENTIAL ENERGY =    -250.7578757217
   NUCLEUS-NUCLEUS POTENTIAL ENERGY =      34.4162966049
                                      ------------------
             TOTAL POTENTIAL ENERGY =    -157.1287776825
               TOTAL KINETIC ENERGY =      78.8052888295
                 VIRIAL RATIO (V/T) =       1.9938861974

          ---------------------------------------
          MULLIKEN AND LOWDIN POPULATION ANALYSES
          ---------------------------------------

     ATOMIC MULLIKEN POPULATION IN EACH MOLECULAR ORBITAL

                      1          2          3          4          5

                  2.000000   2.000000   2.000000   2.000000   2.000000

    1             1.985901   0.012425   0.877888   0.578465   0.645498
    2             0.012560   1.985906   0.897935   0.674898   0.633446
    3             0.000789  -0.000001   0.056245   0.148351   0.161729
    4             0.000696   0.000003   0.046518   0.172400   0.211029
    5             0.000025   0.000894   0.067163   0.213581   0.139936
    6             0.000030   0.000773   0.054251   0.212305   0.208361

                      6          7          8          9

                  2.000000   2.000000   1.000000   1.000000

    1             0.765259   0.448630   0.495078   0.498219
    2             0.635007   0.471265   0.497159   0.496767
    3             0.190920   0.291182   0.002306   0.002537
    4             0.164086   0.245171   0.001518   0.000174
    5             0.154154   0.271915   0.001575   0.000691
    6             0.090574   0.271835   0.002365   0.001612

     ATOMIC SPIN POPULATION (ALPHA MINUS BETA)
       ATOM         MULL.POP.                    LOW.POP.
    1 C             0.993297                     0.992351
    2 C             0.993926                     0.992492
    3 H             0.004842                     0.005951
    4 H             0.001692                     0.001884
    5 H             0.002266                     0.002527
    6 H             0.003977                     0.004794

               ----- POPULATIONS IN EACH AO -----
                             MULLIKEN      LOWDIN
              1  C  1  S      1.99702     1.99009
              2  C  1  S      0.70069     0.56563
              3  C  1  X      0.67265     0.62620
              4  C  1  Y      0.70059     0.64769
              5  C  1  Z      0.72779     0.68175
              6  C  1  S      0.57149     0.43235
              7  C  1  X      0.37921     0.45524
              8  C  1  Y      0.32156     0.43131
              9  C  1  Z      0.23636     0.40069
             10  C  2  S      1.99707     1.99062
             11  C  2  S      0.70901     0.56815
             12  C  2  X      0.63476     0.60661
             13  C  2  Y      0.73961     0.67837
             14  C  2  Z      0.76732     0.70821
             15  C  2  S      0.53162     0.41552
             16  C  2  X      0.38814     0.43521
             17  C  2  Y      0.30668     0.43822
             18  C  2  Z      0.23072     0.40513
             19  H  3  S      0.53236     0.50814
             20  H  3  S      0.32170     0.37416
             21  H  4  S      0.53172     0.50494
             22  H  4  S      0.30987     0.37177
             23  H  5  S      0.55555     0.52961
             24  H  5  S      0.29439     0.35369
             25  H  6  S      0.54654     0.52048
             26  H  6  S      0.29557     0.36020

          ----- MULLIKEN ATOMIC OVERLAP POPULATIONS -----
          (OFF-DIAGONAL ELEMENTS NEED TO BE MULTIPLIED BY 2)

             1           2           3           4           5

    1    5.5183335
    2    0.0829068   5.5300912
    3    0.3959552  -0.0562629   0.5495509
    4    0.3932072  -0.0422263  -0.0307844   0.5220983
    5   -0.0456747   0.4000409  -0.0090319   0.0046994   0.5442235
    6   -0.0373648   0.3903925   0.0046311  -0.0053986  -0.0443230

             6

    6    0.5341698

          TOTAL MULLIKEN AND LOWDIN ATOMIC POPULATIONS
       ATOM         MULL.POP.    CHARGE          LOW.POP.     CHARGE
    1 C             6.307363   -0.307363         6.230957   -0.230957
    2 C             6.304942   -0.304942         6.246041   -0.246041
    3 H             0.854058    0.145942         0.882301    0.117699
    4 H             0.841596    0.158404         0.876713    0.123287
    5 H             0.849934    0.150066         0.883304    0.116696
    6 H             0.842107    0.157893         0.880685    0.119315

          -------------------------------
          BOND ORDER AND VALENCE ANALYSIS     BOND ORDER THRESHOLD=0.050
          -------------------------------

                   BOND                       BOND                       BOND
  ATOM PAIR DIST  ORDER      ATOM PAIR DIST  ORDER      ATOM PAIR DIST  ORDER
    1   2  1.276  0.872        1   3  1.091  0.960        1   4  1.080  0.956
    2   5  1.034  0.958        2   6  1.045  0.953

                       TOTAL       BONDED        FREE
      ATOM            VALENCE     VALENCE     VALENCE
    1 C                 3.793       2.757       1.036
    2 C                 3.784       2.748       1.037
    3 H                 0.945       0.945       0.000
    4 H                 0.944       0.944       0.000
    5 H                 0.938       0.938       0.000
    6 H                 0.937       0.937       0.000

          -----------------------------------------
          ATOMIC SPIN DENSITY AT THE NUCLEUS (A.U.)
          -----------------------------------------
                            SPIN DENS    ALPHA DENS     BETA DENS
    1  C            6.0     0.0079822      59.15308      59.14510
    2  C            6.0     0.0019532      59.17653      59.17458
    3  H            1.0     0.0026140       0.21266       0.21005
    4  H            1.0     0.0010732       0.21170       0.21063
    5  H            1.0     0.0013629       0.22673       0.22537
    6  H            1.0     0.0021969       0.22188       0.21968

          ---------------------
          ELECTROSTATIC MOMENTS
          ---------------------

 POINT   1           X           Y           Z (BOHR)    CHARGE
                 3.230286    3.467417   -4.527765       -0.00 (A.U.)
         DX          DY          DZ         /D/  (DEBYE)
    -0.128156   -0.019841   -0.139276    0.190304
 ...... END OF PROPERTY EVALUATION ......
 CPU     0: STEP CPU TIME=     0.005 TOTAL CPU TIME=        0.094 (     0.002 MIN)
 TOTAL WALL CLOCK TIME=        0.270 SECONDS, CPU UTILIZATION IS    34.785%

 -----------------------------------------------------------------------
                    MRSF  CALCULATION FOR SCFTYP=ROHF
             CODED BY SEUNGHOON LEE AND KONSTANTIN KOMAROV
 -----------------------------------------------------------------------
  
 -TDDFT RUNTIME PARAMETERS-
    TRIPLET  = F
    NONEQ    = T
    NSTATE   =                     3
    IROOT    =                     2
    NTRIAL   =                     1
    MAXVEC   =                    50
    ILENG    =                   200
    MAXGRD   =                 20243
    USING THE SG-1 PRUNED GRIDS
 GAS PHASE COMPUTATION
  
 FOR AN EULER-MACLAURIN QUADRATURE USING  50 RADIAL POINTS:
 SMALLEST GAUSSIAN PRIMITIVE EXPONENT=        0.1612777588 OF TYPE -S-
 ON ATOM NUMBER   3 HAS RADIAL NORMALIZATION=  1.000000
  LARGEST GAUSSIAN PRIMITIVE EXPONENT=     3047.5248800000 OF TYPE -S-
 ON ATOM NUMBER   1 HAS RADIAL NORMALIZATION=  1.000000
  

        --------------------------------------------------
        MRSF-DFT INPUT PARAMETERS (EXTRACTED FROM $TDDFT)
        --------------------------------------------------

     NSTATE=       3  IROOT=       2 MAXVEC=      50
     NTRIAL=       1 CNVTOL=  1.00E-07

     FITTING PARAMETERS OF MRSF RESPONSE CALCULATION
        MRSFscal
        0.500
     FITTING PARAMETERS OF MRSF SPIN-PAIRING COUPLINGS
        CO-CO   OV-OV   CO-OV
        0.500   0.500   0.500
     REFERENCE CALCULATION WAS DONE WITH
        HFscal
        0.500

     ********* NOTE: THE CURRENT STATUS OF MRSF-DFT *********

     (1) ROHF REFERENCE IS AVAILABLE.
     (2) COLLINEAR APPROXIMATION FOR XC FUNCTIONALS.

     *******************************************************

 MEMORY REQUIRED FOR MRSF-TDDFT ITERATIONS IS    169804 WORDS.

   ----------------------------------------------
   DAVIDSON ALGORITHM FOR SINGLET RESPONSE STATES
   ----------------------------------------------


 STATE      ITERATION      ENERGY         RESIDUE NORM
   1            1      -78.4831059928     0.08786973
   2            1      -78.1819503679     0.07985189
   3            1      -78.1581468431     0.07320368

 STATE      ITERATION      ENERGY         RESIDUE NORM
   1            2      -78.4940984386     0.01331943
   2            2      -78.1925090329     0.01090335
   3            2      -78.1639145329     0.04087466

 STATE      ITERATION      ENERGY         RESIDUE NORM
   1            3      -78.4942503821     0.00135587
   2            3      -78.1926863935     0.00110282
   3            3      -78.1672841796     0.01238722

 STATE      ITERATION      ENERGY         RESIDUE NORM
   1            4      -78.4942523324     0.00015823
   2            4      -78.1926885018     0.00024103
   3            4      -78.1675543790     0.00208270

 STATE      ITERATION      ENERGY         RESIDUE NORM
   1            5      -78.4942523568     0.00001761
   2            5      -78.1926886120     0.00006527
   3            5      -78.1675635664     0.00062141

 STATE      ITERATION      ENERGY         RESIDUE NORM
   1            6      -78.4942523570     0.00000145
   2            6      -78.1926886210     0.00001903
   3            6      -78.1675643784     0.00019323

 STATE      ITERATION      ENERGY         RESIDUE NORM
   1            7      -78.4942523570     0.00000008
   2            7      -78.1926886215     0.00000307
   3            7      -78.1675644518     0.00004018

 STATE      ITERATION      ENERGY         RESIDUE NORM
   1            8      -78.4942523570     0.00000001
   2            8      -78.1926886216     0.00000045
   3            8      -78.1675644543     0.00000713

 STATE      ITERATION      ENERGY         RESIDUE NORM
   1            9      -78.4942523570     0.00000000
   2            9      -78.1926886216     0.00000007
   3            9      -78.1675644544     0.00000120

 STATE      ITERATION      ENERGY         RESIDUE NORM
   1           10      -78.4942523570     0.00000000
   2           10      -78.1926886216     0.00000001
   3           10      -78.1675644544     0.00000021

 STATE      ITERATION      ENERGY         RESIDUE NORM
   1           11      -78.4942523570     0.00000000
   2           11      -78.1926886216     0.00000000
   3           11      -78.1675644544     0.00000003

   -------------------------------------------------
    MIXED-REFERENCE SPIN-FLIP CALCULATION CONVERGED
   -------------------------------------------------

 NUMBER OF USED VECTORS / MAX =  31 / 150
 NUMBER OF ITERATIONS   / MAX =  11 / 200
 NUMBER OF SINGLE EXCITATIONS =   170
 NUMBER OF ATOMIC ORBITALS    =  26

     -----------------------------------
     SPIN-ADAPTED SPIN-FLIP EXCITATIONS
     -----------------------------------

 STATE #   1  ENERGY =   -4.646711 EV
 SYMMETRY OF STATE   =    A   
 S-SQUARED           =    0.0000
        DRF    COEF         OCC       VIR 
        ---    ----       ------    ------
          9 -0.991153         9  ->     8
         17 -0.117085         8  ->     9

 STATE #   2  ENERGY =    3.559255 EV
 SYMMETRY OF STATE   =    A   
 S-SQUARED           =    0.0000
        DRF    COEF         OCC       VIR 
        ---    ----       ------    ------
          7  0.819967         7  ->     8
          8 -0.554323         8  ->     8
         14 -0.116577         5  ->     9
         78  0.057268         7  ->    16

 STATE #   3  ENERGY =    4.242919 EV
 SYMMETRY OF STATE   =    A   
 S-SQUARED           =    0.0000
        DRF    COEF         OCC       VIR 
        ---    ----       ------    ------
          7 -0.539380         7  ->     8
          8 -0.807694         8  ->     8
         26  0.119800         9  ->    10
         35 -0.171997         9  ->    11
         98  0.069358         9  ->    18

          ----------------------------
          SUMMARY OF MRSF-DFT RESULTS
          ----------------------------

   STATE             ENERGY     EXCITATION      <S^2>    TRANSITION DIPOLE, A.U.  OSCILLATOR
                    HARTREE         EV                      X        Y        Z    STRENGTH

 1 NEGATIVE ROOT(S) FOUND.
   1  A          -78.4942523570   -4.647        0.0000   0.0000   0.0000   0.0000   0.0000
   0  A          -78.3234888530    0.000               (REFERENCE STATE)
   2  A          -78.1926886216    3.559        0.0000  -0.0696  -0.3176   0.5091   0.0734
   3  A          -78.1675644544    4.243        0.0000  -0.2584  -0.7005   1.2306   0.4512
  
 TRANSITION        EXCITATION            TRANSITION DIPOLE, A.U.     OSCILLATOR
                       EV              X       Y       Z       DIP    STRENGTH

  1  ->  2           8.206         -0.0696 -0.3176  0.5091   0.6041    0.0734
  1  ->  3           8.890         -0.2584 -0.7005  1.2306   1.4394    0.4512
  2  ->  3           0.684         -0.0461  0.0206 -0.0252   0.0564    0.0001
 
 SELECTING EXCITED STATE IROOT=   2 AT E=      -78.1926886216
 AS THE STATE OF INTEREST.


 ..... DONE WITH MRSF-TDDFT EXCITATION ENERGIES .....
 CPU     0: STEP CPU TIME=     0.018 TOTAL CPU TIME=        0.118 (     0.002 MIN)
 TOTAL WALL CLOCK TIME=        0.749 SECONDS, CPU UTILIZATION IS    15.763%
 STEP WALL TIME =     0.142

 -----------------------------------------------------------------------
                 MRSF-TDDFT ENERGY GRADIENT CALCULATION
 -----------------------------------------------------------------------

    -------------------------
       START Z-VECTOR LOOP
    -------------------------
 INITIAL ERROR =    5.222E-02 / 1.000E-10
 ITER# 1 ERROR =    3.443E-03 / 1.000E-10
 ITER# 2 ERROR =    3.056E-04 / 1.000E-10
 ITER# 3 ERROR =    3.165E-05 / 1.000E-10
 ITER# 4 ERROR =    2.207E-06 / 1.000E-10
 ITER# 5 ERROR =    9.625E-08 / 1.000E-10
 ITER# 6 ERROR =    1.694E-08 / 1.000E-10
 ITER# 7 ERROR =    1.299E-09 / 1.000E-10
 ITER# 8 ERROR =    3.941E-11 / 1.000E-10
    -------------------------
        Z-VECTOR CONVERGED          
    -------------------------
 ..... DONE WITH MRSF-DFT EXCITED STATE RESPONSE AND DENSITY MATRIX .....
 CPU     0: STEP CPU TIME=     0.147 TOTAL CPU TIME=        0.265 (     0.004 MIN)
 TOTAL WALL CLOCK TIME=        1.052 SECONDS, CPU UTILIZATION IS    25.222%

     ------------------------------------------
     PROPERTIES FOR THE BHHLYP   DFT FUNCTIONAL
      USING THE RELAXED DENSITY OF EXCITED STATE    2
     ------------------------------------------

          -----------------
          ENERGY COMPONENTS
          -----------------

         WAVEFUNCTION NORMALIZATION =       1.0000000000

                ONE ELECTRON ENERGY =    -171.9651686091
                TWO ELECTRON ENERGY =      59.3561833827
           NUCLEAR REPULSION ENERGY =      34.4162966049
                                      ------------------
                       TOTAL ENERGY =     -78.1926886216

 ELECTRON-ELECTRON POTENTIAL ENERGY =      59.3561833827
  NUCLEUS-ELECTRON POTENTIAL ENERGY =    -250.4664971713
   NUCLEUS-NUCLEUS POTENTIAL ENERGY =      34.4162966049
                                      ------------------
             TOTAL POTENTIAL ENERGY =    -156.6940171837
               TOTAL KINETIC ENERGY =      78.5013285622
                 VIRIAL RATIO (V/T) =       1.9960683476

          ---------------------------------------
          MULLIKEN AND LOWDIN POPULATION ANALYSES
          ---------------------------------------

     ATOMIC MULLIKEN POPULATION IN EACH MOLECULAR ORBITAL

                      1          2          3          4          5

                  2.000000   2.000000   2.000000   2.000000   2.000000

    1             1.985901   0.012425   0.877888   0.578465   0.645498
    2             0.012560   1.985906   0.897935   0.674898   0.633446
    3             0.000789  -0.000001   0.056245   0.148351   0.161729
    4             0.000696   0.000003   0.046518   0.172400   0.211029
    5             0.000025   0.000894   0.067163   0.213581   0.139936
    6             0.000030   0.000773   0.054251   0.212305   0.208361

                      6          7          8          9

                  2.000000   2.000000   1.000000   1.000000

    1             0.765259   0.448630   0.495078   0.498219
    2             0.635007   0.471265   0.497159   0.496767
    3             0.190920   0.291182   0.002306   0.002537
    4             0.164086   0.245171   0.001518   0.000174
    5             0.154154   0.271915   0.001575   0.000691
    6             0.090574   0.271835   0.002365   0.001612

     ATOMIC SPIN POPULATION (ALPHA MINUS BETA)
       ATOM         MULL.POP.                    LOW.POP.
    1 C             0.227491                     0.223013
    2 C             0.194253                     0.190879
    3 H            -0.113697                    -0.111904
    4 H            -0.092349                    -0.090790
    5 H            -0.105392                    -0.103945
    6 H            -0.110307                    -0.107253

               ----- POPULATIONS IN EACH AO -----
                             MULLIKEN      LOWDIN
              1  C  1  S      1.99696     1.98987
              2  C  1  S      0.69527     0.55752
              3  C  1  X      0.68717     0.64083
              4  C  1  Y      0.66678     0.61881
              5  C  1  Z      0.74432     0.69941
              6  C  1  S      0.52602     0.42623
              7  C  1  X      0.43262     0.52344
              8  C  1  Y      0.36690     0.47028
              9  C  1  Z      0.31860     0.46009
             10  C  2  S      1.99702     1.99042
             11  C  2  S      0.70482     0.56151
             12  C  2  X      0.65065     0.62677
             13  C  2  Y      0.71468     0.65547
             14  C  2  Z      0.77241     0.71403
             15  C  2  S      0.49011     0.40974
             16  C  2  X      0.51519     0.55456
             17  C  2  Y      0.32135     0.45394
             18  C  2  Z      0.28652     0.44148
             19  H  3  S      0.49434     0.45734
             20  H  3  S      0.29047     0.34125
             21  H  4  S      0.49846     0.46187
             22  H  4  S      0.28100     0.34393
             23  H  5  S      0.51706     0.47867
             24  H  5  S      0.26375     0.32421
             25  H  6  S      0.50817     0.47064
             26  H  6  S      0.25936     0.32769

          ----- MULLIKEN ATOMIC OVERLAP POPULATIONS -----
          (OFF-DIAGONAL ELEMENTS NEED TO BE MULTIPLIED BY 2)

             1           2           3           4           5

    1    5.5434509
    2    0.2554776   5.5817909
    3    0.3377221  -0.0389747   0.5046452
    4    0.3525255  -0.0298573  -0.0194949   0.4744310
    5   -0.0280742   0.3444736  -0.0016150   0.0027185   0.4928534
    6   -0.0264625   0.3398473   0.0025275  -0.0008646  -0.0295548

             6

    6    0.4820401

          TOTAL MULLIKEN AND LOWDIN ATOMIC POPULATIONS
       ATOM         MULL.POP.    CHARGE          LOW.POP.     CHARGE
    1 C             6.434639   -0.434639         6.386478   -0.386478
    2 C             6.452757   -0.452757         6.407922   -0.407922
    3 H             0.784810    0.215190         0.798594    0.201406
    4 H             0.779458    0.220542         0.805797    0.194203
    5 H             0.780802    0.219198         0.802883    0.197117
    6 H             0.767533    0.232467         0.798327    0.201673

          -------------------------------
          BOND ORDER AND VALENCE ANALYSIS     BOND ORDER THRESHOLD=0.050
          -------------------------------

                   BOND                       BOND                       BOND
  ATOM PAIR DIST  ORDER      ATOM PAIR DIST  ORDER      ATOM PAIR DIST  ORDER
    1   2  1.276  1.332        1   3  1.091  0.813        1   4  1.080  0.842
    2   5  1.034  0.820        2   6  1.045  0.816

                       TOTAL       BONDED        FREE
      ATOM            VALENCE     VALENCE     VALENCE
    1 C                 3.691       3.035       0.657
    2 C                 3.669       3.015       0.654
    3 H                 0.924       0.862       0.062
    4 H                 0.926       0.883       0.043
    5 H                 0.919       0.865       0.054
    6 H                 0.914       0.855       0.058

          -----------------------------------------
          ATOMIC SPIN DENSITY AT THE NUCLEUS (A.U.)
          -----------------------------------------
                            SPIN DENS    ALPHA DENS     BETA DENS
    1  C            6.0     0.0039054      59.12424      59.12033
    2  C            6.0     0.0010897      59.15301      59.15192
    3  H            1.0    -0.0598138       0.16492       0.22474
    4  H            1.0    -0.0498657       0.17174       0.22160
    5  H            1.0    -0.0605938       0.17839       0.23898
    6  H            1.0    -0.0600590       0.17370       0.23375

          ---------------------
          ELECTROSTATIC MOMENTS
          ---------------------

 POINT   1           X           Y           Z (BOHR)    CHARGE
                 3.230286    3.467417   -4.527765       -0.00 (A.U.)
         DX          DY          DZ         /D/  (DEBYE)
    -0.313561   -0.020445   -0.247917    0.400251
 ...... END OF PROPERTY EVALUATION ......
 CPU     0: STEP CPU TIME=     0.004 TOTAL CPU TIME=        0.270 (     0.004 MIN)
 TOTAL WALL CLOCK TIME=        1.058 SECONDS, CPU UTILIZATION IS    25.485%

 BEGINNING ONE ELECTRON GRADIENT...
 ..... END OF 1-ELECTRON GRADIENT ......
 CPU     0: STEP CPU TIME=     0.002 TOTAL CPU TIME=        0.271 (     0.005 MIN)
 TOTAL WALL CLOCK TIME=        1.064 SECONDS, CPU UTILIZATION IS    25.474%

          ----------------------
          GRADIENT OF THE ENERGY
          ----------------------
 MEMORY FOR GRID POINT CONTRIBUTIONS TO THE SF-DFT GRADIENT=    526139 WORDS.
 CPU     0: STEP CPU TIME=     0.168 TOTAL CPU TIME=        0.439 (     0.007 MIN)
 TOTAL WALL CLOCK TIME=        1.848 SECONDS, CPU UTILIZATION IS    23.752%
 THE COARSE/FINE SCHWARZ SCREENINGS SKIPPED            6/          60 BLOCKS.
 THE NUMBER OF GRADIENT INTEGRAL BLOCKS COMPUTED WAS      5433
 ...... END OF 2-ELECTRON GRADIENT ......
 CPU     0: STEP CPU TIME=     0.005 TOTAL CPU TIME=        0.444 (     0.007 MIN)
 TOTAL WALL CLOCK TIME=        1.873 SECONDS, CPU UTILIZATION IS    23.711%

                         ----------------------
                         GRADIENT OF THE ENERGY
                         ----------------------

 UNITS ARE HARTREE/BOHR    E'X               E'Y               E'Z 
    1 C                0.019144795       0.065883044      -0.108086576
    2 C               -0.026318635      -0.045716602       0.081410075
    3 H                0.013789183       0.016275128      -0.008873626
    4 H               -0.004144342       0.002841453      -0.018477568
    5 H                0.008741614      -0.054459588       0.013541802
    6 H               -0.011212614       0.015176566       0.040485892

                   MAXIMUM GRADIENT =    0.108086576
                       RMS GRADIENT =    0.042111835
  $VIB   
          IVIB=   0 IATOM=   0 ICOORD=   0 E=      -78.1926886216
  1.914479461E-02 6.588304412E-02-1.080865759E-01-2.631863548E-02-4.571660211E-02
  8.141007544E-02 1.378918308E-02 1.627512756E-02-8.873625768E-03-4.144342355E-03
  2.841452660E-03-1.847756842E-02 8.741614168E-03-5.445958837E-02 1.354180233E-02
 -1.121261403E-02 1.517656613E-02 4.048589231E-02
 -3.135605906E-01-2.044519434E-02-2.479172195E-01

..... END OF SINGLE POINT GRADIENT .....
 CPU     0: STEP CPU TIME=     0.000 TOTAL CPU TIME=        0.444 (     0.007 MIN)
 TOTAL WALL CLOCK TIME=        1.873 SECONDS, CPU UTILIZATION IS    23.716%

 EXTERNAL MD STEP =       1

     ---------------------------------
     NONADIABATIC COUPLING TERM (A.U.)
     BY USING FINITE DIFFERENCE APPROX
         (<PHI^{I}|D/DT|PHI^{J}>)
     ---------------------------------

    1   0.000000   0.000114   0.000200
    2  -0.000114   0.000000  -0.000064
    3  -0.000200   0.000064   0.000000
  
                580000  WORDS OF DYNAMIC MEMORY USED
 EXECUTION OF GAMESS TERMINATED NORMALLY 18:20:48 15-AUG-2023    
 DDI: 263640 bytes (0.3 MB / 0 MWords) used by master data server.

 ----------------------------------------
 CPU timing information for all processes
 ========================================
 0: 0.280 + 0.174 = 0.454
 1: 0.241 + 0.151 = 0.393
 2: 0.245 + 0.138 = 0.384
 3: 0.232 + 0.161 = 0.393
 4: 0.226 + 0.145 = 0.371
 5: 0.235 + 0.152 = 0.388
 6: 0.218 + 0.152 = 0.370
 7: 0.246 + 0.153 = 0.399
 8: 0.254 + 0.161 = 0.416
 9: 0.239 + 0.129 = 0.369
 10: 0.262 + 0.156 = 0.419
 11: 0.227 + 0.141 = 0.369
 12: 0.239 + 0.164 = 0.404
 13: 0.217 + 0.145 = 0.362
 14: 0.260 + 0.177 = 0.438
 15: 0.246 + 0.143 = 0.389
 16: 0.212 + 0.143 = 0.355
 17: 0.263 + 0.159 = 0.422
 18: 0.249 + 0.132 = 0.381
 19: 0.264 + 0.154 = 0.418
 20: 0.209 + 0.142 = 0.352
 21: 0.239 + 0.149 = 0.389
 22: 0.235 + 0.143 = 0.378
 23: 0.232 + 0.128 = 0.360
 24: 0.253 + 0.148 = 0.401
 25: 0.225 + 0.137 = 0.362
 26: 0.214 + 0.148 = 0.362
 27: 0.207 + 0.137 = 0.344
 ----------------------------------------
 ddikick.x: exited gracefully.
